<VTKFile type="UnstructuredGrid" version="0.1" byte_order="LittleEndian">
  <UnstructuredGrid>
    <Piece NumberOfPoints="8" NumberOfCells="1">
      <PointData>
        <DataArray type="Float64" Name="displacement" NumberOfComponents="2" format="ascii" RangeMin="0" RangeMax="0.0035977593027">
          0 0 0.002544 0 0 0.002544
          0.002544 0.002544 0.001272 0 0 0.001272
          0.002544 0.001272 0.001272 0.002544
        </DataArray>
        <DataArray type="Float64" Name="pressure" format="ascii" RangeMin="0" RangeMax="0.0005208">
          0.0005208 0.0005208 0.0005208 0.0005208 0 0
          0 0
        </DataArray>
        <DataArray type="Float64" Name="pressure_ana" format="ascii" RangeMin="0" RangeMax="0.0005208">
          0.0005207999999999999 0.0005207999999999999 0.0005207999999999999 0.0005207999999999999 0 0 0 0
        </DataArray>
        <DataArray type="Float64" Name="temperature" format="ascii" RangeMin="0" RangeMax="80">
          80 80 80 80 0 0
          0 0
        </DataArray>
      </PointData>
      <CellData>
        <DataArray type="Int32" Name="MaterialIDs" format="ascii" RangeMin="0" RangeMax="0">
          0
        </DataArray>
      </CellData>
      <Points>
        <DataArray type="Float64" Name="Points" NumberOfComponents="3" format="ascii" RangeMin="0" RangeMax="1.4142135624">
          0 0 0 1 0 0
          0 1 0 1 1 0
          0.5 0 0 0 0.5 0
          1 0.5 0 0.5 1 0
        </DataArray>
      </Points>
      <Cells>
        <DataArray type="Int64" Name="connectivity" format="ascii" RangeMin="0" RangeMax="7">
          0 1 3 2 4 6
          7 5
        </DataArray>
        <DataArray type="Int64" Name="offsets" format="ascii" RangeMin="8" RangeMax="8">
          8
        </DataArray>
        <DataArray type="UInt8" Name="types" format="ascii" RangeMin="23" RangeMax="23">
          23
        </DataArray>
        <DataArray type="Int64" Name="faces" format="ascii" RangeMin="0" RangeMax="0">
          0
        </DataArray>
        <DataArray type="Int64" Name="faceoffsets" format="ascii" RangeMin="1" RangeMax="1">
          1
        </DataArray>
      </Cells>
    </Piece>
  </UnstructuredGrid>
</VTKFile>
