<?xml version="1.0"?>
<!-- Time step: 8 | Time: 8.000000000000e+01 -->
<VTKFile type="UnstructuredGrid" version="0.1" byte_order="LittleEndian">
  <UnstructuredGrid>
    <Piece NumberOfPoints="121" NumberOfCells="100">
      <Points>
        <DataArray type="Float64" NumberOfComponents="3" format="ascii">
          0.000000000000e+00 0.000000000000e+00 0.000000000000e+00
          1.000000000000e-01 0.000000000000e+00 0.000000000000e+00
          2.000000000000e-01 0.000000000000e+00 0.000000000000e+00
          3.000000000000e-01 0.000000000000e+00 0.000000000000e+00
          4.000000000000e-01 0.000000000000e+00 0.000000000000e+00
          5.000000000000e-01 0.000000000000e+00 0.000000000000e+00
          6.000000000000e-01 0.000000000000e+00 0.000000000000e+00
          7.000000000000e-01 0.000000000000e+00 0.000000000000e+00
          8.000000000000e-01 0.000000000000e+00 0.000000000000e+00
          9.000000000000e-01 0.000000000000e+00 0.000000000000e+00
          1.000000000000e+00 0.000000000000e+00 0.000000000000e+00
          0.000000000000e+00 1.000000000000e-01 0.000000000000e+00
          1.000000000000e-01 1.000000000000e-01 0.000000000000e+00
          2.000000000000e-01 1.000000000000e-01 0.000000000000e+00
          3.000000000000e-01 1.000000000000e-01 0.000000000000e+00
          4.000000000000e-01 1.000000000000e-01 0.000000000000e+00
          5.000000000000e-01 1.000000000000e-01 0.000000000000e+00
          6.000000000000e-01 1.000000000000e-01 0.000000000000e+00
          7.000000000000e-01 1.000000000000e-01 0.000000000000e+00
          8.000000000000e-01 1.000000000000e-01 0.000000000000e+00
          9.000000000000e-01 1.000000000000e-01 0.000000000000e+00
          1.000000000000e+00 1.000000000000e-01 0.000000000000e+00
          0.000000000000e+00 2.000000000000e-01 0.000000000000e+00
          1.000000000000e-01 2.000000000000e-01 0.000000000000e+00
          2.000000000000e-01 2.000000000000e-01 0.000000000000e+00
          3.000000000000e-01 2.000000000000e-01 0.000000000000e+00
          4.000000000000e-01 2.000000000000e-01 0.000000000000e+00
          5.000000000000e-01 2.000000000000e-01 0.000000000000e+00
          6.000000000000e-01 2.000000000000e-01 0.000000000000e+00
          7.000000000000e-01 2.000000000000e-01 0.000000000000e+00
          8.000000000000e-01 2.000000000000e-01 0.000000000000e+00
          9.000000000000e-01 2.000000000000e-01 0.000000000000e+00
          1.000000000000e+00 2.000000000000e-01 0.000000000000e+00
          0.000000000000e+00 3.000000000000e-01 0.000000000000e+00
          1.000000000000e-01 3.000000000000e-01 0.000000000000e+00
          2.000000000000e-01 3.000000000000e-01 0.000000000000e+00
          3.000000000000e-01 3.000000000000e-01 0.000000000000e+00
          4.000000000000e-01 3.000000000000e-01 0.000000000000e+00
          5.000000000000e-01 3.000000000000e-01 0.000000000000e+00
          6.000000000000e-01 3.000000000000e-01 0.000000000000e+00
          7.000000000000e-01 3.000000000000e-01 0.000000000000e+00
          8.000000000000e-01 3.000000000000e-01 0.000000000000e+00
          9.000000000000e-01 3.000000000000e-01 0.000000000000e+00
          1.000000000000e+00 3.000000000000e-01 0.000000000000e+00
          0.000000000000e+00 4.000000000000e-01 0.000000000000e+00
          1.000000000000e-01 4.000000000000e-01 0.000000000000e+00
          2.000000000000e-01 4.000000000000e-01 0.000000000000e+00
          3.000000000000e-01 4.000000000000e-01 0.000000000000e+00
          4.000000000000e-01 4.000000000000e-01 0.000000000000e+00
          5.000000000000e-01 4.000000000000e-01 0.000000000000e+00
          6.000000000000e-01 4.000000000000e-01 0.000000000000e+00
          7.000000000000e-01 4.000000000000e-01 0.000000000000e+00
          8.000000000000e-01 4.000000000000e-01 0.000000000000e+00
          9.000000000000e-01 4.000000000000e-01 0.000000000000e+00
          1.000000000000e+00 4.000000000000e-01 0.000000000000e+00
          0.000000000000e+00 5.000000000000e-01 0.000000000000e+00
          1.000000000000e-01 5.000000000000e-01 0.000000000000e+00
          2.000000000000e-01 5.000000000000e-01 0.000000000000e+00
          3.000000000000e-01 5.000000000000e-01 0.000000000000e+00
          4.000000000000e-01 5.000000000000e-01 0.000000000000e+00
          5.000000000000e-01 5.000000000000e-01 0.000000000000e+00
          6.000000000000e-01 5.000000000000e-01 0.000000000000e+00
          7.000000000000e-01 5.000000000000e-01 0.000000000000e+00
          8.000000000000e-01 5.000000000000e-01 0.000000000000e+00
          9.000000000000e-01 5.000000000000e-01 0.000000000000e+00
          1.000000000000e+00 5.000000000000e-01 0.000000000000e+00
          0.000000000000e+00 6.000000000000e-01 0.000000000000e+00
          1.000000000000e-01 6.000000000000e-01 0.000000000000e+00
          2.000000000000e-01 6.000000000000e-01 0.000000000000e+00
          3.000000000000e-01 6.000000000000e-01 0.000000000000e+00
          4.000000000000e-01 6.000000000000e-01 0.000000000000e+00
          5.000000000000e-01 6.000000000000e-01 0.000000000000e+00
          6.000000000000e-01 6.000000000000e-01 0.000000000000e+00
          7.000000000000e-01 6.000000000000e-01 0.000000000000e+00
          8.000000000000e-01 6.000000000000e-01 0.000000000000e+00
          9.000000000000e-01 6.000000000000e-01 0.000000000000e+00
          1.000000000000e+00 6.000000000000e-01 0.000000000000e+00
          0.000000000000e+00 7.000000000000e-01 0.000000000000e+00
          1.000000000000e-01 7.000000000000e-01 0.000000000000e+00
          2.000000000000e-01 7.000000000000e-01 0.000000000000e+00
          3.000000000000e-01 7.000000000000e-01 0.000000000000e+00
          4.000000000000e-01 7.000000000000e-01 0.000000000000e+00
          5.000000000000e-01 7.000000000000e-01 0.000000000000e+00
          6.000000000000e-01 7.000000000000e-01 0.000000000000e+00
          7.000000000000e-01 7.000000000000e-01 0.000000000000e+00
          8.000000000000e-01 7.000000000000e-01 0.000000000000e+00
          9.000000000000e-01 7.000000000000e-01 0.000000000000e+00
          1.000000000000e+00 7.000000000000e-01 0.000000000000e+00
          0.000000000000e+00 8.000000000000e-01 0.000000000000e+00
          1.000000000000e-01 8.000000000000e-01 0.000000000000e+00
          2.000000000000e-01 8.000000000000e-01 0.000000000000e+00
          3.000000000000e-01 8.000000000000e-01 0.000000000000e+00
          4.000000000000e-01 8.000000000000e-01 0.000000000000e+00
          5.000000000000e-01 8.000000000000e-01 0.000000000000e+00
          6.000000000000e-01 8.000000000000e-01 0.000000000000e+00
          7.000000000000e-01 8.000000000000e-01 0.000000000000e+00
          8.000000000000e-01 8.000000000000e-01 0.000000000000e+00
          9.000000000000e-01 8.000000000000e-01 0.000000000000e+00
          1.000000000000e+00 8.000000000000e-01 0.000000000000e+00
          0.000000000000e+00 9.000000000000e-01 0.000000000000e+00
          1.000000000000e-01 9.000000000000e-01 0.000000000000e+00
          2.000000000000e-01 9.000000000000e-01 0.000000000000e+00
          3.000000000000e-01 9.000000000000e-01 0.000000000000e+00
          4.000000000000e-01 9.000000000000e-01 0.000000000000e+00
          5.000000000000e-01 9.000000000000e-01 0.000000000000e+00
          6.000000000000e-01 9.000000000000e-01 0.000000000000e+00
          7.000000000000e-01 9.000000000000e-01 0.000000000000e+00
          8.000000000000e-01 9.000000000000e-01 0.000000000000e+00
          9.000000000000e-01 9.000000000000e-01 0.000000000000e+00
          1.000000000000e+00 9.000000000000e-01 0.000000000000e+00
          0.000000000000e+00 1.000000000000e+00 0.000000000000e+00
          1.000000000000e-01 1.000000000000e+00 0.000000000000e+00
          2.000000000000e-01 1.000000000000e+00 0.000000000000e+00
          3.000000000000e-01 1.000000000000e+00 0.000000000000e+00
          4.000000000000e-01 1.000000000000e+00 0.000000000000e+00
          5.000000000000e-01 1.000000000000e+00 0.000000000000e+00
          6.000000000000e-01 1.000000000000e+00 0.000000000000e+00
          7.000000000000e-01 1.000000000000e+00 0.000000000000e+00
          8.000000000000e-01 1.000000000000e+00 0.000000000000e+00
          9.000000000000e-01 1.000000000000e+00 0.000000000000e+00
          1.000000000000e+00 1.000000000000e+00 0.000000000000e+00
        </DataArray>
      </Points>
      <Cells>
        <DataArray type="Int64" Name="connectivity" format="ascii">
          0 1 12 11 
          1 2 13 12 
          2 3 14 13 
          3 4 15 14 
          4 5 16 15 
          5 6 17 16 
          6 7 18 17 
          7 8 19 18 
          8 9 20 19 
          9 10 21 20 
          11 12 23 22 
          12 13 24 23 
          13 14 25 24 
          14 15 26 25 
          15 16 27 26 
          16 17 28 27 
          17 18 29 28 
          18 19 30 29 
          19 20 31 30 
          20 21 32 31 
          22 23 34 33 
          23 24 35 34 
          24 25 36 35 
          25 26 37 36 
          26 27 38 37 
          27 28 39 38 
          28 29 40 39 
          29 30 41 40 
          30 31 42 41 
          31 32 43 42 
          33 34 45 44 
          34 35 46 45 
          35 36 47 46 
          36 37 48 47 
          37 38 49 48 
          38 39 50 49 
          39 40 51 50 
          40 41 52 51 
          41 42 53 52 
          42 43 54 53 
          44 45 56 55 
          45 46 57 56 
          46 47 58 57 
          47 48 59 58 
          48 49 60 59 
          49 50 61 60 
          50 51 62 61 
          51 52 63 62 
          52 53 64 63 
          53 54 65 64 
          55 56 67 66 
          56 57 68 67 
          57 58 69 68 
          58 59 70 69 
          59 60 71 70 
          60 61 72 71 
          61 62 73 72 
          62 63 74 73 
          63 64 75 74 
          64 65 76 75 
          66 67 78 77 
          67 68 79 78 
          68 69 80 79 
          69 70 81 80 
          70 71 82 81 
          71 72 83 82 
          72 73 84 83 
          73 74 85 84 
          74 75 86 85 
          75 76 87 86 
          77 78 89 88 
          78 79 90 89 
          79 80 91 90 
          80 81 92 91 
          81 82 93 92 
          82 83 94 93 
          83 84 95 94 
          84 85 96 95 
          85 86 97 96 
          86 87 98 97 
          88 89 100 99 
          89 90 101 100 
          90 91 102 101 
          91 92 103 102 
          92 93 104 103 
          93 94 105 104 
          94 95 106 105 
          95 96 107 106 
          96 97 108 107 
          97 98 109 108 
          99 100 111 110 
          100 101 112 111 
          101 102 113 112 
          102 103 114 113 
          103 104 115 114 
          104 105 116 115 
          105 106 117 116 
          106 107 118 117 
          107 108 119 118 
          108 109 120 119 
        </DataArray>
        <DataArray type="Int64" Name="offsets" format="ascii">
          4 8 12 16 20 24 28 32 36 40 44 48 52 56 60 64 68 72 76 80 84 88 92 96 100 104 108 112 116 120 124 128 132 136 140 144 148 152 156 160 164 168 172 176 180 184 188 192 196 200 204 208 212 216 220 224 228 232 236 240 244 248 252 256 260 264 268 272 276 280 284 288 292 296 300 304 308 312 316 320 324 328 332 336 340 344 348 352 356 360 364 368 372 376 380 384 388 392 396 400 
        </DataArray>
        <DataArray type="UInt8" Name="types" format="ascii">
          9 9 9 9 9 9 9 9 9 9 9 9 9 9 9 9 9 9 9 9 9 9 9 9 9 9 9 9 9 9 9 9 9 9 9 9 9 9 9 9 9 9 9 9 9 9 9 9 9 9 9 9 9 9 9 9 9 9 9 9 9 9 9 9 9 9 9 9 9 9 9 9 9 9 9 9 9 9 9 9 9 9 9 9 9 9 9 9 9 9 9 9 9 9 9 9 9 9 9 9 
        </DataArray>
      </Cells>
      <PointData Scalars="PRESSURE1">
        <DataArray type="Float64" Name="PRESSURE1" format="ascii">
          1.254560208716e-03 1.137639363700e-03 1.014091644474e-03 8.888225881040e-04 7.627150609308e-04 6.361109299249e-04 5.091858449472e-04 3.820471259797e-04 2.547682712576e-04 1.274042787579e-04 0.000000000000e+00 1.264926791961e-03 1.139594029508e-03 1.014908631510e-03 8.892668028731e-04 7.629908860467e-04 6.362931299687e-04 5.093084314706e-04 3.821279735045e-04 2.548175213789e-04 1.274276121931e-04 0.000000000000e+00 1.269776695957e-03 1.142917661857e-03 1.016648118168e-03 8.903104358589e-04 7.636691206024e-04 6.367513845368e-04 5.096203099516e-04 3.823348686403e-04 2.549439258503e-04 1.274875802087e-04 0.000000000000e+00 1.273087266384e-03 1.145705003836e-03 1.018660902956e-03 8.916909208940e-04 7.646269643934e-04 6.374204112487e-04 5.100834557602e-04 3.826447968275e-04 2.551341051961e-04 1.275779848390e-04 0.000000000000e+00 1.275776329794e-03 1.148138284368e-03 1.020644889245e-03 8.932030692150e-04 7.657398829020e-04 6.382225492972e-04 5.106478986412e-04 3.830256855385e-04 2.553688073343e-04 1.276897688336e-04 0.000000000000e+00 1.278233387134e-03 1.150417522957e-03 1.022586949141e-03 8.947503205119e-04 7.669149821450e-04 6.390847333206e-04 5.112603293787e-04 3.834409570434e-04 2.556253137773e-04 1.278120731592e-04 0.000000000000e+00 1.280712848717e-03 1.152712453825e-03 1.024534416112e-03 8.962950490891e-04 7.680841105376e-04 6.399407031185e-04 5.118676455806e-04 3.838525152620e-04 2.558794507914e-04 1.279332311163e-04 0.000000000000e+00 1.283480181727e-03 1.155196492799e-03 1.026530535918e-03 8.977940715084e-04 7.691760017295e-04 6.407231994671e-04 5.124166105142e-04 3.842223863896e-04 2.561071875940e-04 1.280416590720e-04 0.000000000000e+00 1.286973404896e-03 1.158078755790e-03 1.028539191546e-03 8.991307477591e-04 7.700904885358e-04 6.413573672825e-04 5.128540144899e-04 3.845145409691e-04 2.562862930548e-04 1.281267629585e-04 0.000000000000e+00 1.292292283461e-03 1.161519461224e-03 1.030153522827e-03 9.000774379311e-04 7.706986057676e-04 6.417659878626e-04 5.131313436586e-04 3.846982587527e-04 2.563984586012e-04 1.281799587087e-04 0.000000000000e+00 1.304614354960e-03 1.162643294317e-03 1.030712692859e-03 9.003772515744e-04 7.708849449952e-04 6.418890698561e-04 5.132141550609e-04 3.847528740200e-04 2.564317287424e-04 1.281957212421e-04 0.000000000000e+00 
        </DataArray>
        <DataArray type="Float64" Name="TEMPERATURE1" format="ascii">
          5.231500000000e+02 4.708350000000e+02 4.185200000000e+02 3.662050000000e+02 3.138900000000e+02 2.615750000000e+02 2.092600000000e+02 1.569450000000e+02 1.046300000000e+02 5.231500000000e+01 0.000000000000e+00 5.231500000000e+02 4.708350000000e+02 4.185200000000e+02 3.662050000000e+02 3.138900000000e+02 2.615750000000e+02 2.092600000000e+02 1.569450000000e+02 1.046300000000e+02 5.231500000000e+01 0.000000000000e+00 5.231500000000e+02 4.708350000000e+02 4.185200000000e+02 3.662050000000e+02 3.138900000000e+02 2.615750000000e+02 2.092600000000e+02 1.569450000000e+02 1.046300000000e+02 5.231500000000e+01 0.000000000000e+00 5.231500000000e+02 4.708350000000e+02 4.185200000000e+02 3.662050000000e+02 3.138900000000e+02 2.615750000000e+02 2.092600000000e+02 1.569450000000e+02 1.046300000000e+02 5.231500000000e+01 0.000000000000e+00 5.231500000000e+02 4.708350000000e+02 4.185200000000e+02 3.662050000000e+02 3.138900000000e+02 2.615750000000e+02 2.092600000000e+02 1.569450000000e+02 1.046300000000e+02 5.231500000000e+01 0.000000000000e+00 5.231500000000e+02 4.708350000000e+02 4.185200000000e+02 3.662050000000e+02 3.138900000000e+02 2.615750000000e+02 2.092600000000e+02 1.569450000000e+02 1.046300000000e+02 5.231500000000e+01 0.000000000000e+00 5.231500000000e+02 4.708350000000e+02 4.185200000000e+02 3.662050000000e+02 3.138900000000e+02 2.615750000000e+02 2.092600000000e+02 1.569450000000e+02 1.046300000000e+02 5.231500000000e+01 0.000000000000e+00 5.231500000000e+02 4.708350000000e+02 4.185200000000e+02 3.662050000000e+02 3.138900000000e+02 2.615750000000e+02 2.092600000000e+02 1.569450000000e+02 1.046300000000e+02 5.231500000000e+01 0.000000000000e+00 5.231500000000e+02 4.708350000000e+02 4.185200000000e+02 3.662050000000e+02 3.138900000000e+02 2.615750000000e+02 2.092600000000e+02 1.569450000000e+02 1.046300000000e+02 5.231500000000e+01 0.000000000000e+00 5.231500000000e+02 4.708350000000e+02 4.185200000000e+02 3.662050000000e+02 3.138900000000e+02 2.615750000000e+02 2.092600000000e+02 1.569450000000e+02 1.046300000000e+02 5.231500000000e+01 0.000000000000e+00 5.231500000000e+02 4.708350000000e+02 4.185200000000e+02 3.662050000000e+02 3.138900000000e+02 2.615750000000e+02 2.092600000000e+02 1.569450000000e+02 1.046300000000e+02 5.231500000000e+01 0.000000000000e+00 
        </DataArray>
        <DataArray type="Float64" Name="STRESS_XX" format="ascii">
          -2.913325245286e-02 -2.858101909002e-02 -2.675585187695e-02 -2.383204521503e-02 -2.007392627958e-02 -1.579670843878e-02 -1.134066791585e-02 -7.064385799691e-03 -3.361053023329e-03 -6.936236071201e-04 2.665822204540e-04 -2.869134081959e-02 -2.814465999321e-02 -2.632203428664e-02 -2.341162343453e-02 -1.968601547478e-02 -1.546483588072e-02 -1.108613046932e-02 -6.899080537407e-03 -3.281282702366e-03 -6.766903638068e-04 2.606575853240e-04 -2.731784109977e-02 -2.677162531185e-02 -2.495700706644e-02 -2.208835457746e-02 -1.846535412634e-02 -1.442059736302e-02 -1.028447931721e-02 -6.377078718852e-03 -3.028305744913e-03 -6.230178181442e-04 2.417472244764e-04 -2.481250411625e-02 -2.426318263257e-02 -2.246037911191e-02 -1.966916120895e-02 -1.623721805631e-02 -1.251678415990e-02 -8.821151846021e-03 -5.418811114907e-03 -2.558219774740e-03 -5.206926586410e-04 2.065528273791e-04 -2.082199338444e-02 -2.026511116281e-02 -1.848079901650e-02 -1.582382701867e-02 -1.271434849663e-02 -9.521859640182e-03 -6.522095497884e-03 -3.904734926239e-03 -1.804019322701e-03 -3.511087076397e-04 1.499420890012e-04 -1.479618946225e-02 -1.422588380032e-02 -1.248133293852e-02 -1.007239046932e-02 -7.511237958786e-03 -5.153470954147e-03 -3.192056594388e-03 -1.704849915269e-03 -6.896786630869e-04 -9.088251147008e-05 6.605408884537e-05 -5.896319955748e-03 -5.306966754527e-03 -3.673075092489e-03 -1.772611548321e-03 -1.874479172439e-04 8.455454052177e-04 1.304243359466e-03 1.257828762903e-03 8.376389979110e-04 2.826987211724e-04 -4.924646929698e-05 7.205568866106e-03 7.812256920344e-03 9.104031602629e-03 9.862689261832e-03 9.637046498090e-03 8.556423036053e-03 6.892379106208e-03 4.883012976730e-03 2.735759927586e-03 7.777191343651e-04 -1.922882970732e-04 2.681387190971e-02 2.739504689655e-02 2.753836436991e-02 2.558477357916e-02 2.201074353870e-02 1.763667963005e-02 1.306041793941e-02 8.671030487706e-03 4.695909772163e-03 1.341618790350e-03 -3.335241755692e-04 5.753431540591e-02 5.800028078715e-02 5.351761735174e-02 4.535187770731e-02 3.615952897316e-02 2.703427104095e-02 1.862010695562e-02 1.138811722038e-02 5.695375802274e-03 1.634128144998e-03 -3.485939902338e-04 1.219422656268e-01 1.053494794313e-01 8.510436767137e-02 6.676934527213e-02 4.999352165412e-02 3.488548631301e-02 2.167835354931e-02 1.080007447354e-02 2.990546124200e-03 -5.519730800431e-04 -2.297803439459e-04 
        </DataArray>
        <DataArray type="Float64" Name="STRESS_XY" format="ascii">
          8.545055470583e-08 -1.134142635932e-06 -2.709428348815e-06 -4.297106805070e-06 -5.930935667522e-06 -7.451236252253e-06 -8.678967288249e-06 -9.456964779545e-06 -9.726206192428e-06 -1.092770500389e-05 2.454523666018e-05 -3.555579407438e-06 -1.324252638121e-03 -2.523972718813e-03 -3.495006562020e-03 -4.170053371987e-03 -4.514645821008e-03 -4.511772464126e-03 -4.139604389062e-03 -3.348399180002e-03 -2.042732776257e-03 -7.043932040632e-05 -7.827251714368e-06 -2.649394600894e-03 -5.034967464648e-03 -6.945441691224e-03 -8.250341012508e-03 -8.892133007692e-03 -8.850993582957e-03 -8.096874727617e-03 -6.540571871968e-03 -3.993959569093e-03 -1.404230561338e-04 -1.288065006253e-05 -3.975042294967e-03 -7.518068214472e-03 -1.029908077177e-02 -1.213659507518e-02 -1.297562249986e-02 -1.282240221953e-02 -1.166522862605e-02 -9.396654384787e-03 -5.744840279071e-03 -2.085623145522e-04 -1.969142819795e-05 -5.303900813689e-03 -9.952674154348e-03 -1.348267348896e-02 -1.568914882403e-02 -1.656514039655e-02 -1.618558732811e-02 -1.459279598199e-02 -1.169281995201e-02 -7.152365031463e-03 -2.707142762364e-04 -2.993552332289e-05 -6.639231880747e-03 -1.229885438905e-02 -1.637164882357e-02 -1.869526743801e-02 -1.938510203546e-02 -1.863388927392e-02 -1.657024939424e-02 -1.315087761081e-02 -8.027930842699e-03 -3.182500170293e-04 -4.732603674053e-05 -7.978810694622e-03 -1.445838346391e-02 -1.871976217508e-02 -2.079712971224e-02 -2.103612268211e-02 -1.977770519370e-02 -1.723774622405e-02 -1.345017673857e-02 -8.137472698086e-03 -3.351163424643e-04 -8.160774636490e-05 -9.295280480332e-03 -1.616591590840e-02 -1.999985616608e-02 -2.136275441357e-02 -2.092825465539e-02 -1.913782986727e-02 -1.622517707780e-02 -1.228455558956e-02 -7.228983575944e-03 -2.922791458864e-04 -1.653999854137e-04 -1.046317830460e-02 -1.665890577822e-02 -1.907038909598e-02 -1.930524001885e-02 -1.821532171298e-02 -1.615192463047e-02 -1.322788464852e-02 -9.498889841628e-03 -5.131645437377e-03 -1.342089749535e-04 -5.215106454160e-04 -1.090875793581e-02 -1.354933648560e-02 -1.370449205430e-02 -1.299652772492e-02 -1.180127531690e-02 -1.017619902698e-02 -8.045472886018e-03 -5.301743982123e-03 -2.090600399177e-03 2.464024827322e-04 -2.229258532613e-03 -2.309820028925e-03 -1.185595193725e-03 -8.071460274767e-04 -6.148662537282e-04 -4.937502103370e-04 -3.982712424108e-04 -2.912372068376e-04 -1.136739380136e-04 2.548309731360e-04 3.149266688872e-04 
        </DataArray>
        <DataArray type="Float64" Name="STRESS_YY" format="ascii">
          -6.707796553860e-02 -4.691054387770e-02 -3.013448492970e-02 -1.638923215230e-02 -5.124022081432e-03 4.351674772206e-03 1.282720341633e-02 2.117383074351e-02 3.035872089547e-02 4.148817026072e-02 5.587454579002e-02 -6.639647408404e-02 -4.626669626914e-02 -2.958181842059e-02 -1.596953281416e-02 -4.862389679393e-03 4.442921083861e-03 1.273905090794e-02 2.088905261752e-02 2.984141885688e-02 4.067783921628e-02 5.468906461308e-02 -6.437616529997e-02 -4.434564526576e-02 -2.793907089642e-02 -1.473350756034e-02 -4.104734216574e-03 4.691734480326e-03 1.245910933200e-02 2.003485591853e-02 2.830875295357e-02 3.828309983250e-02 5.117590104750e-02 -6.100993525459e-02 -4.115669708024e-02 -2.524161718263e-02 -1.274267532023e-02 -2.925338177782e-03 5.031586045962e-03 1.194999884251e-02 1.862156417196e-02 2.583029628219e-02 3.442914592566e-02 4.548412112502e-02 -5.628907008002e-02 -3.671354966691e-02 -2.155544978444e-02 -1.011140257862e-02 -1.458148803325e-03 5.345779265073e-03 1.114667549756e-02 1.666554180221e-02 2.252617188723e-02 2.934174525979e-02 3.790048055710e-02 -5.019561494759e-02 -3.104058759140e-02 -1.699640046643e-02 -7.029006130265e-03 9.035877503610e-05 5.465825818843e-03 9.959574759747e-03 1.419117993649e-02 1.857105623855e-02 2.336824351858e-02 2.890609463930e-02 -4.269702406745e-02 -2.418781541953e-02 -1.177401834402e-02 -3.798623301360e-03 1.432317414441e-03 5.187978199581e-03 8.296950142739e-03 1.124229366147e-02 1.419506959380e-02 1.699497327164e-02 1.925006263634e-02 -3.373851600117e-02 -1.627778468185e-02 -6.294544656424e-03 -8.955177314966e-04 2.218005033411e-03 4.335928010624e-03 6.129551998163e-03 7.917002417704e-03 9.676754021454e-03 1.083962260718e-02 1.002921547959e-02 -2.321603650395e-02 -7.656932463974e-03 -1.408180031805e-03 1.001433142385e-03 2.150602656632e-03 2.905214099022e-03 3.621604841980e-03 4.455125455948e-03 5.335289652816e-03 5.569956186935e-03 2.750976729718e-03 -1.046487650715e-02 2.208207280415e-04 1.182376825449e-03 1.311794335716e-03 1.299207674024e-03 1.280107385730e-03 1.308799771003e-03 1.421569119384e-03 1.617327416450e-03 1.640259797517e-03 -6.673617583124e-04 2.592960308944e-03 2.110938022800e-03 1.203662062171e-03 8.718734359087e-04 6.536708534494e-04 4.634586397546e-04 2.732496271469e-04 7.206569772034e-05 -1.284169567843e-04 -2.272355973883e-04 -2.306113049387e-04 
        </DataArray>
        <DataArray type="Float64" Name="STRESS_ZZ" format="ascii">
          -1.826694653974e-01 -1.610729588903e-01 -1.401119810420e-01 -1.197306532102e-01 -9.984304450830e-02 -8.033656009997e-02 -6.107647934986e-02 -4.190899651686e-02 -2.266191963836e-02 -3.142246003919e-03 1.684233840314e-02 -1.823324444711e-01 -1.607488968787e-01 -1.398160358122e-01 -1.194786168746e-01 -9.964818154625e-02 -8.020962443906e-02 -6.102656386841e-02 -4.194483837597e-02 -2.279317915365e-02 -3.380265344257e-03 1.648491665952e-02 -1.813143019199e-01 -1.597606711733e-01 -1.389137033889e-01 -1.187108286413e-01 -9.905468650287e-02 -7.982170886481e-02 -6.087005099556e-02 -4.204449684010e-02 -2.317708583740e-02 -4.082585395692e-03 1.542529448159e-02 -1.795528318113e-01 -1.580514539138e-01 -1.373554788884e-01 -1.173878209588e-01 -9.803242687023e-02 -7.914860943418e-02 -6.058378590105e-02 -4.218100408288e-02 -2.377959704777e-02 -5.208074019895e-03 1.370720218572e-02 -1.769394190393e-01 -1.555190882489e-01 -1.350557546403e-01 -1.154448388792e-01 -9.653540918999e-02 -7.815587411253e-02 -6.013506600010e-02 -4.231358793721e-02 -2.454457423064e-02 -6.683419034354e-03 1.141512679383e-02 -1.733036413230e-01 -1.520054314175e-01 -1.318882000215e-01 -1.127946889799e-01 -9.450992375513e-02 -7.680934354059e-02 -5.949218455039e-02 -4.239593099363e-02 -2.539680672736e-02 -8.397401697866e-03 8.691644618442e-03 -1.683841032070e-01 -1.472739246522e-01 -1.276790080310e-01 -1.093356404549e-01 -9.191019915084e-02 -7.509299291856e-02 -5.864208194934e-02 -4.239179327269e-02 -2.625140742249e-02 -1.019730840216e-02 5.760244850114e-03 -1.617659841405e-01 -1.409651483285e-01 -1.222020339161e-01 -1.049741185409e-01 -8.872714454055e-02 -7.303534468600e-02 -5.761586066869e-02 -4.230182538167e-02 -2.703746581529e-02 -1.189540747754e-02 2.951078154755e-03 -1.527267493783e-01 -1.325040556702e-01 -1.152058246986e-01 -9.968840798354e-02 -8.503525614140e-02 -7.074048188128e-02 -5.651783316558e-02 -4.220398321690e-02 -2.775186017251e-02 -1.330713750681e-02 7.252357662447e-04 -1.396852683304e-01 -1.209591595454e-01 -1.066348817468e-01 -9.366516838709e-02 -8.104603900585e-02 -6.840873647199e-02 -5.554376798201e-02 -4.229892409807e-02 -2.856740903438e-02 -1.439829361725e-02 -3.047867245639e-04 -1.164455322193e-01 -1.061873647638e-01 -9.715247107994e-02 -8.737190438759e-02 -7.708950224773e-02 -6.629836651417e-02 -5.493695904706e-02 -4.288018794862e-02 -2.990258124978e-02 -1.561437260323e-02 -1.381174946654e-04 
        </DataArray>
        <DataArray type="Float64" Name="STRAIN_XX" format="ascii">
          9.504622706093e-03 8.201881987637e-03 7.017284186407e-03 5.936580494939e-03 4.938088271302e-03 3.995324150455e-03 3.078883564962e-03 2.157047330110e-03 1.194815552359e-03 1.515813864685e-04 -1.026118239881e-03 9.511115940331e-03 8.208833711959e-03 7.025819142056e-03 5.947004355814e-03 4.950038852044e-03 4.008010720278e-03 3.091550638991e-03 2.169499294768e-03 1.207879304127e-03 1.673641654565e-04 -1.004358895069e-03 9.533114241247e-03 8.232655219993e-03 7.054462153293e-03 5.981391251573e-03 4.988863432833e-03 4.048640235825e-03 3.131487770565e-03 2.207983026553e-03 1.247305434297e-03 2.141637071815e-04 -9.399338778215e-04 9.579163143024e-03 8.282131079317e-03 7.112553795685e-03 6.049250365464e-03 5.063512926576e-03 4.124827278884e-03 3.204353536740e-03 2.275754802780e-03 1.313704307378e-03 2.901712271252e-04 -8.357544840878e-04 9.664412064351e-03 8.372865248187e-03 7.216544871948e-03 6.167015019937e-03 5.188922804827e-03 4.248772324479e-03 3.318898173946e-03 2.377690900679e-03 1.407748637158e-03 3.920001630823e-04 -6.973685769656e-04 9.812366067567e-03 8.529210090588e-03 7.391853676564e-03 6.358999431606e-03 5.385632930250e-03 4.435839731542e-03 3.485246016324e-03 2.518971685804e-03 1.529488880169e-03 5.142130924912e-04 -5.339651280227e-04 1.005876753460e-02 8.788430727000e-03 7.676557753334e-03 6.658663694217e-03 5.678075076366e-03 4.700957134329e-03 3.710962995307e-03 2.702119459346e-03 1.676940968882e-03 6.487623457298e-04 -3.596351769159e-04 1.046014375755e-02 9.210029848735e-03 8.128470722590e-03 7.108945244931e-03 6.089211826201e-03 5.050918954222e-03 3.993367224160e-03 2.920966184091e-03 1.843104450749e-03 7.845268854987e-04 -1.945893517799e-04 1.111441941307e-02 9.898515873181e-03 8.836545037573e-03 7.755006477691e-03 6.626657123054e-03 5.470967141178e-03 4.307225068404e-03 3.149405610285e-03 2.008671472765e-03 9.068277707769e-04 -6.554228211229e-05 1.220883137415e-02 1.107844154440e-02 9.914202325150e-03 8.605817139177e-03 7.255582779652e-03 5.908376655564e-03 4.591097019949e-03 3.323483510190e-03 2.121029537507e-03 9.924832519484e-04 -2.711878350998e-06 1.475733986666e-02 1.309513797398e-02 1.128256620841e-02 9.542077359887e-03 7.867044336781e-03 6.263762317873e-03 4.742852684537e-03 3.323063864229e-03 2.036241218389e-03 9.324342561972e-04 -5.674366860224e-06 
        </DataArray>
        <DataArray type="Float64" Name="STRAIN_XY" format="ascii">