<?xml version="1.0"?>
<!-- Time step: 5 | Time: 5.000000000000e+01 -->
<VTKFile type="UnstructuredGrid" version="0.1" byte_order="LittleEndian">
  <UnstructuredGrid>
    <Piece NumberOfPoints="121" NumberOfCells="100">
      <Points>
        <DataArray type="Float64" NumberOfComponents="3" format="ascii">
          0.000000000000e+00 0.000000000000e+00 0.000000000000e+00
          1.000000000000e-01 0.000000000000e+00 0.000000000000e+00
          2.000000000000e-01 0.000000000000e+00 0.000000000000e+00
          3.000000000000e-01 0.000000000000e+00 0.000000000000e+00
          4.000000000000e-01 0.000000000000e+00 0.000000000000e+00
          5.000000000000e-01 0.000000000000e+00 0.000000000000e+00
          6.000000000000e-01 0.000000000000e+00 0.000000000000e+00
          7.000000000000e-01 0.000000000000e+00 0.000000000000e+00
          8.000000000000e-01 0.000000000000e+00 0.000000000000e+00
          9.000000000000e-01 0.000000000000e+00 0.000000000000e+00
          1.000000000000e+00 0.000000000000e+00 0.000000000000e+00
          0.000000000000e+00 1.000000000000e-01 0.000000000000e+00
          1.000000000000e-01 1.000000000000e-01 0.000000000000e+00
          2.000000000000e-01 1.000000000000e-01 0.000000000000e+00
          3.000000000000e-01 1.000000000000e-01 0.000000000000e+00
          4.000000000000e-01 1.000000000000e-01 0.000000000000e+00
          5.000000000000e-01 1.000000000000e-01 0.000000000000e+00
          6.000000000000e-01 1.000000000000e-01 0.000000000000e+00
          7.000000000000e-01 1.000000000000e-01 0.000000000000e+00
          8.000000000000e-01 1.000000000000e-01 0.000000000000e+00
          9.000000000000e-01 1.000000000000e-01 0.000000000000e+00
          1.000000000000e+00 1.000000000000e-01 0.000000000000e+00
          0.000000000000e+00 2.000000000000e-01 0.000000000000e+00
          1.000000000000e-01 2.000000000000e-01 0.000000000000e+00
          2.000000000000e-01 2.000000000000e-01 0.000000000000e+00
          3.000000000000e-01 2.000000000000e-01 0.000000000000e+00
          4.000000000000e-01 2.000000000000e-01 0.000000000000e+00
          5.000000000000e-01 2.000000000000e-01 0.000000000000e+00
          6.000000000000e-01 2.000000000000e-01 0.000000000000e+00
          7.000000000000e-01 2.000000000000e-01 0.000000000000e+00
          8.000000000000e-01 2.000000000000e-01 0.000000000000e+00
          9.000000000000e-01 2.000000000000e-01 0.000000000000e+00
          1.000000000000e+00 2.000000000000e-01 0.000000000000e+00
          0.000000000000e+00 3.000000000000e-01 0.000000000000e+00
          1.000000000000e-01 3.000000000000e-01 0.000000000000e+00
          2.000000000000e-01 3.000000000000e-01 0.000000000000e+00
          3.000000000000e-01 3.000000000000e-01 0.000000000000e+00
          4.000000000000e-01 3.000000000000e-01 0.000000000000e+00
          5.000000000000e-01 3.000000000000e-01 0.000000000000e+00
          6.000000000000e-01 3.000000000000e-01 0.000000000000e+00
          7.000000000000e-01 3.000000000000e-01 0.000000000000e+00
          8.000000000000e-01 3.000000000000e-01 0.000000000000e+00
          9.000000000000e-01 3.000000000000e-01 0.000000000000e+00
          1.000000000000e+00 3.000000000000e-01 0.000000000000e+00
          0.000000000000e+00 4.000000000000e-01 0.000000000000e+00
          1.000000000000e-01 4.000000000000e-01 0.000000000000e+00
          2.000000000000e-01 4.000000000000e-01 0.000000000000e+00
          3.000000000000e-01 4.000000000000e-01 0.000000000000e+00
          4.000000000000e-01 4.000000000000e-01 0.000000000000e+00
          5.000000000000e-01 4.000000000000e-01 0.000000000000e+00
          6.000000000000e-01 4.000000000000e-01 0.000000000000e+00
          7.000000000000e-01 4.000000000000e-01 0.000000000000e+00
          8.000000000000e-01 4.000000000000e-01 0.000000000000e+00
          9.000000000000e-01 4.000000000000e-01 0.000000000000e+00
          1.000000000000e+00 4.000000000000e-01 0.000000000000e+00
          0.000000000000e+00 5.000000000000e-01 0.000000000000e+00
          1.000000000000e-01 5.000000000000e-01 0.000000000000e+00
          2.000000000000e-01 5.000000000000e-01 0.000000000000e+00
          3.000000000000e-01 5.000000000000e-01 0.000000000000e+00
          4.000000000000e-01 5.000000000000e-01 0.000000000000e+00
          5.000000000000e-01 5.000000000000e-01 0.000000000000e+00
          6.000000000000e-01 5.000000000000e-01 0.000000000000e+00
          7.000000000000e-01 5.000000000000e-01 0.000000000000e+00
          8.000000000000e-01 5.000000000000e-01 0.000000000000e+00
          9.000000000000e-01 5.000000000000e-01 0.000000000000e+00
          1.000000000000e+00 5.000000000000e-01 0.000000000000e+00
          0.000000000000e+00 6.000000000000e-01 0.000000000000e+00
          1.000000000000e-01 6.000000000000e-01 0.000000000000e+00
          2.000000000000e-01 6.000000000000e-01 0.000000000000e+00
          3.000000000000e-01 6.000000000000e-01 0.000000000000e+00
          4.000000000000e-01 6.000000000000e-01 0.000000000000e+00
          5.000000000000e-01 6.000000000000e-01 0.000000000000e+00
          6.000000000000e-01 6.000000000000e-01 0.000000000000e+00
          7.000000000000e-01 6.000000000000e-01 0.000000000000e+00
          8.000000000000e-01 6.000000000000e-01 0.000000000000e+00
          9.000000000000e-01 6.000000000000e-01 0.000000000000e+00
          1.000000000000e+00 6.000000000000e-01 0.000000000000e+00
          0.000000000000e+00 7.000000000000e-01 0.000000000000e+00
          1.000000000000e-01 7.000000000000e-01 0.000000000000e+00
          2.000000000000e-01 7.000000000000e-01 0.000000000000e+00
          3.000000000000e-01 7.000000000000e-01 0.000000000000e+00
          4.000000000000e-01 7.000000000000e-01 0.000000000000e+00
          5.000000000000e-01 7.000000000000e-01 0.000000000000e+00
          6.000000000000e-01 7.000000000000e-01 0.000000000000e+00
          7.000000000000e-01 7.000000000000e-01 0.000000000000e+00
          8.000000000000e-01 7.000000000000e-01 0.000000000000e+00
          9.000000000000e-01 7.000000000000e-01 0.000000000000e+00
          1.000000000000e+00 7.000000000000e-01 0.000000000000e+00
          0.000000000000e+00 8.000000000000e-01 0.000000000000e+00
          1.000000000000e-01 8.000000000000e-01 0.000000000000e+00
          2.000000000000e-01 8.000000000000e-01 0.000000000000e+00
          3.000000000000e-01 8.000000000000e-01 0.000000000000e+00
          4.000000000000e-01 8.000000000000e-01 0.000000000000e+00
          5.000000000000e-01 8.000000000000e-01 0.000000000000e+00
          6.000000000000e-01 8.000000000000e-01 0.000000000000e+00
          7.000000000000e-01 8.000000000000e-01 0.000000000000e+00
          8.000000000000e-01 8.000000000000e-01 0.000000000000e+00
          9.000000000000e-01 8.000000000000e-01 0.000000000000e+00
          1.000000000000e+00 8.000000000000e-01 0.000000000000e+00
          0.000000000000e+00 9.000000000000e-01 0.000000000000e+00
          1.000000000000e-01 9.000000000000e-01 0.000000000000e+00
          2.000000000000e-01 9.000000000000e-01 0.000000000000e+00
          3.000000000000e-01 9.000000000000e-01 0.000000000000e+00
          4.000000000000e-01 9.000000000000e-01 0.000000000000e+00
          5.000000000000e-01 9.000000000000e-01 0.000000000000e+00
          6.000000000000e-01 9.000000000000e-01 0.000000000000e+00
          7.000000000000e-01 9.000000000000e-01 0.000000000000e+00
          8.000000000000e-01 9.000000000000e-01 0.000000000000e+00
          9.000000000000e-01 9.000000000000e-01 0.000000000000e+00
          1.000000000000e+00 9.000000000000e-01 0.000000000000e+00
          0.000000000000e+00 1.000000000000e+00 0.000000000000e+00
          1.000000000000e-01 1.000000000000e+00 0.000000000000e+00
          2.000000000000e-01 1.000000000000e+00 0.000000000000e+00
          3.000000000000e-01 1.000000000000e+00 0.000000000000e+00
          4.000000000000e-01 1.000000000000e+00 0.000000000000e+00
          5.000000000000e-01 1.000000000000e+00 0.000000000000e+00
          6.000000000000e-01 1.000000000000e+00 0.000000000000e+00
          7.000000000000e-01 1.000000000000e+00 0.000000000000e+00
          8.000000000000e-01 1.000000000000e+00 0.000000000000e+00
          9.000000000000e-01 1.000000000000e+00 0.000000000000e+00
          1.000000000000e+00 1.000000000000e+00 0.000000000000e+00
        </DataArray>
      </Points>
      <Cells>
        <DataArray type="Int64" Name="connectivity" format="ascii">
          0 1 12 11 
          1 2 13 12 
          2 3 14 13 
          3 4 15 14 
          4 5 16 15 
          5 6 17 16 
          6 7 18 17 
          7 8 19 18 
          8 9 20 19 
          9 10 21 20 
          11 12 23 22 
          12 13 24 23 
          13 14 25 24 
          14 15 26 25 
          15 16 27 26 
          16 17 28 27 
          17 18 29 28 
          18 19 30 29 
          19 20 31 30 
          20 21 32 31 
          22 23 34 33 
          23 24 35 34 
          24 25 36 35 
          25 26 37 36 
          26 27 38 37 
          27 28 39 38 
          28 29 40 39 
          29 30 41 40 
          30 31 42 41 
          31 32 43 42 
          33 34 45 44 
          34 35 46 45 
          35 36 47 46 
          36 37 48 47 
          37 38 49 48 
          38 39 50 49 
          39 40 51 50 
          40 41 52 51 
          41 42 53 52 
          42 43 54 53 
          44 45 56 55 
          45 46 57 56 
          46 47 58 57 
          47 48 59 58 
          48 49 60 59 
          49 50 61 60 
          50 51 62 61 
          51 52 63 62 
          52 53 64 63 
          53 54 65 64 
          55 56 67 66 
          56 57 68 67 
          57 58 69 68 
          58 59 70 69 
          59 60 71 70 
          60 61 72 71 
          61 62 73 72 
          62 63 74 73 
          63 64 75 74 
          64 65 76 75 
          66 67 78 77 
          67 68 79 78 
          68 69 80 79 
          69 70 81 80 
          70 71 82 81 
          71 72 83 82 
          72 73 84 83 
          73 74 85 84 
          74 75 86 85 
          75 76 87 86 
          77 78 89 88 
          78 79 90 89 
          79 80 91 90 
          80 81 92 91 
          81 82 93 92 
          82 83 94 93 
          83 84 95 94 
          84 85 96 95 
          85 86 97 96 
          86 87 98 97 
          88 89 100 99 
          89 90 101 100 
          90 91 102 101 
          91 92 103 102 
          92 93 104 103 
          93 94 105 104 
          94 95 106 105 
          95 96 107 106 
          96 97 108 107 
          97 98 109 108 
          99 100 111 110 
          100 101 112 111 
          101 102 113 112 
          102 103 114 113 
          103 104 115 114 
          104 105 116 115 
          105 106 117 116 
          106 107 118 117 
          107 108 119 118 
          108 109 120 119 
        </DataArray>
        <DataArray type="Int64" Name="offsets" format="ascii">
          4 8 12 16 20 24 28 32 36 40 44 48 52 56 60 64 68 72 76 80 84 88 92 96 100 104 108 112 116 120 124 128 132 136 140 144 148 152 156 160 164 168 172 176 180 184 188 192 196 200 204 208 212 216 220 224 228 232 236 240 244 248 252 256 260 264 268 272 276 280 284 288 292 296 300 304 308 312 316 320 324 328 332 336 340 344 348 352 356 360 364 368 372 376 380 384 388 392 396 400 
        </DataArray>
        <DataArray type="UInt8" Name="types" format="ascii">
          9 9 9 9 9 9 9 9 9 9 9 9 9 9 9 9 9 9 9 9 9 9 9 9 9 9 9 9 9 9 9 9 9 9 9 9 9 9 9 9 9 9 9 9 9 9 9 9 9 9 9 9 9 9 9 9 9 9 9 9 9 9 9 9 9 9 9 9 9 9 9 9 9 9 9 9 9 9 9 9 9 9 9 9 9 9 9 9 9 9 9 9 9 9 9 9 9 9 9 9 
        </DataArray>
      </Cells>
      <PointData Scalars="PRESSURE1">
        <DataArray type="Float64" Name="PRESSURE1" format="ascii">
          1.254560208717e-03 1.137639363701e-03 1.014091644476e-03 8.888225881054e-04 7.627150609322e-04 6.361109299262e-04 5.091858449483e-04 3.820471259807e-04 2.547682712582e-04 1.274042787582e-04 0.000000000000e+00 1.264926791963e-03 1.139594029510e-03 1.014908631511e-03 8.892668028746e-04 7.629908860482e-04 6.362931299701e-04 5.093084314718e-04 3.821279735055e-04 2.548175213795e-04 1.274276121935e-04 0.000000000000e+00 1.269776695958e-03 1.142917661858e-03 1.016648118169e-03 8.903104358604e-04 7.636691206038e-04 6.367513845381e-04 5.096203099528e-04 3.823348686412e-04 2.549439258510e-04 1.274875802090e-04 0.000000000000e+00 1.273087266386e-03 1.145705003837e-03 1.018660902957e-03 8.916909208955e-04 7.646269643948e-04 6.374204112500e-04 5.100834557614e-04 3.826447968284e-04 2.551341051968e-04 1.275779848393e-04 0.000000000000e+00 1.275776329796e-03 1.148138284370e-03 1.020644889246e-03 8.932030692164e-04 7.657398829035e-04 6.382225492985e-04 5.106478986424e-04 3.830256855395e-04 2.553688073349e-04 1.276897688339e-04 0.000000000000e+00 1.278233387135e-03 1.150417522958e-03 1.022586949142e-03 8.947503205134e-04 7.669149821464e-04 6.390847333219e-04 5.112603293798e-04 3.834409570443e-04 2.556253137779e-04 1.278120731595e-04 0.000000000000e+00 1.280712848719e-03 1.152712453826e-03 1.024534416114e-03 8.962950490905e-04 7.680841105390e-04 6.399407031198e-04 5.118676455817e-04 3.838525152629e-04 2.558794507920e-04 1.279332311166e-04 0.000000000000e+00 1.283480181728e-03 1.155196492800e-03 1.026530535919e-03 8.977940715098e-04 7.691760017309e-04 6.407231994684e-04 5.124166105152e-04 3.842223863904e-04 2.561071875946e-04 1.280416590723e-04 0.000000000000e+00 1.286973404898e-03 1.158078755791e-03 1.028539191548e-03 8.991307477605e-04 7.700904885372e-04 6.413573672837e-04 5.128540144910e-04 3.845145409699e-04 2.562862930554e-04 1.281267629588e-04 0.000000000000e+00 1.292292283462e-03 1.161519461225e-03 1.030153522828e-03 9.000774379325e-04 7.706986057689e-04 6.417659878638e-04 5.131313436596e-04 3.846982587535e-04 2.563984586018e-04 1.281799587089e-04 0.000000000000e+00 1.304614354962e-03 1.162643294318e-03 1.030712692860e-03 9.003772515758e-04 7.708849449965e-04 6.418890698573e-04 5.132141550620e-04 3.847528740208e-04 2.564317287430e-04 1.281957212424e-04 0.000000000000e+00 
        </DataArray>
        <DataArray type="Float64" Name="TEMPERATURE1" format="ascii">
          5.231500000000e+02 4.708349999751e+02 4.185199999526e+02 3.662049999348e+02 3.138899999233e+02 2.615749999194e+02 2.092599999234e+02 1.569449999348e+02 1.046299999527e+02 5.231499997512e+01 0.000000000000e+00 5.231500000000e+02 4.708349999751e+02 4.185199999526e+02 3.662049999348e+02 3.138899999233e+02 2.615749999194e+02 2.092599999234e+02 1.569449999348e+02 1.046299999527e+02 5.231499997512e+01 0.000000000000e+00 5.231500000000e+02 4.708349999751e+02 4.185199999526e+02 3.662049999348e+02 3.138899999233e+02 2.615749999194e+02 2.092599999234e+02 1.569449999348e+02 1.046299999527e+02 5.231499997512e+01 0.000000000000e+00 5.231500000000e+02 4.708349999751e+02 4.185199999526e+02 3.662049999348e+02 3.138899999233e+02 2.615749999194e+02 2.092599999234e+02 1.569449999348e+02 1.046299999527e+02 5.231499997512e+01 0.000000000000e+00 5.231500000000e+02 4.708349999751e+02 4.185199999526e+02 3.662049999348e+02 3.138899999233e+02 2.615749999194e+02 2.092599999234e+02 1.569449999348e+02 1.046299999527e+02 5.231499997512e+01 0.000000000000e+00 5.231500000000e+02 4.708349999751e+02 4.185199999526e+02 3.662049999348e+02 3.138899999233e+02 2.615749999194e+02 2.092599999234e+02 1.569449999348e+02 1.046299999527e+02 5.231499997512e+01 0.000000000000e+00 5.231500000000e+02 4.708349999751e+02 4.185199999526e+02 3.662049999348e+02 3.138899999233e+02 2.615749999194e+02 2.092599999234e+02 1.569449999348e+02 1.046299999527e+02 5.231499997512e+01 0.000000000000e+00 5.231500000000e+02 4.708349999751e+02 4.185199999526e+02 3.662049999348e+02 3.138899999233e+02 2.615749999194e+02 2.092599999234e+02 1.569449999348e+02 1.046299999527e+02 5.231499997512e+01 0.000000000000e+00 5.231500000000e+02 4.708349999751e+02 4.185199999526e+02 3.662049999348e+02 3.138899999233e+02 2.615749999194e+02 2.092599999234e+02 1.569449999348e+02 1.046299999527e+02 5.231499997512e+01 0.000000000000e+00 5.231500000000e+02 4.708349999751e+02 4.185199999526e+02 3.662049999348e+02 3.138899999233e+02 2.615749999194e+02 2.092599999234e+02 1.569449999348e+02 1.046299999527e+02 5.231499997512e+01 0.000000000000e+00 5.231500000000e+02 4.708349999751e+02 4.185199999526e+02 3.662049999348e+02 3.138899999233e+02 2.615749999194e+02 2.092599999234e+02 1.569449999348e+02 1.046299999527e+02 5.231499997512e+01 0.000000000000e+00 
        </DataArray>
        <DataArray type="Float64" Name="STRESS_XX" format="ascii">
          -2.913325245228e-02 -2.858101908939e-02 -2.675585187617e-02 -2.383204521406e-02 -2.007392627849e-02 -1.579670843768e-02 -1.134066791489e-02 -7.064385798998e-03 -3.361053022965e-03 -6.936236070356e-04 2.665822204264e-04 -2.869134081908e-02 -2.814465999263e-02 -2.632203428589e-02 -2.341162343357e-02 -1.968601547366e-02 -1.546483587957e-02 -1.108613046831e-02 -6.899080536670e-03 -3.281282701975e-03 -6.766903637150e-04 2.606575852944e-04 -2.731784109945e-02 -2.677162531144e-02 -2.495700706578e-02 -2.208835457651e-02 -1.846535412514e-02 -1.442059736174e-02 -1.028447931604e-02 -6.377078717982e-03 -3.028305744441e-03 -6.230178180298e-04 2.417472244404e-04 -2.481250411628e-02 -2.426318263245e-02 -2.246037911143e-02 -1.966916120801e-02 -1.623721805499e-02 -1.251678415840e-02 -8.821151844602e-03 -5.418811113820e-03 -2.558219774133e-03 -5.206926584880e-04 2.065528273325e-04 -2.082199338499e-02 -2.026511116315e-02 -1.848079901629e-02 -1.582382701778e-02 -1.271434849516e-02 -9.521859638400e-03 -6.522095496145e-03 -3.904734924871e-03 -1.804019321913e-03 -3.511087074328e-04 1.499420889408e-04 -1.479618946351e-02 -1.422588380128e-02 -1.248133293869e-02 -1.007239046853e-02 -7.511237957186e-03 -5.153470952099e-03 -3.192056592338e-03 -1.704849913624e-03 -6.896786621133e-04 -9.088251120169e-05 6.605408877069e-05 -5.896319957851e-03 -5.306966756198e-03 -3.673075093091e-03 -1.772611547698e-03 -1.874479156419e-04 8.455454073468e-04 1.304243361625e-03 1.257828764658e-03 8.376389989768e-04 2.826987214840e-04 -4.924646937763e-05 7.205568863282e-03 7.812256918097e-03 9.104031601675e-03 9.862689262158e-03 9.637046499307e-03 8.556423037701e-03 6.892379107872e-03 4.883012978085e-03 2.735759928428e-03 7.777191346356e-04 -1.922882971327e-04 2.681387190704e-02 2.739504689456e-02 2.753836436903e-02 2.558477357885e-02 2.201074353854e-02 1.763667962988e-02 1.306041793923e-02 8.671030487544e-03 4.695909772061e-03 1.341618790345e-03 -3.335241755468e-04 5.753431540632e-02 5.800028078820e-02 5.351761735174e-02 4.535187770521e-02 3.615952896928e-02 2.703427103616e-02 1.862010695092e-02 1.138811721664e-02 5.695375799979e-03 1.634128144211e-03 -3.485939900547e-04 1.219422656448e-01 1.053494794412e-01 8.510436767155e-02 6.676934526464e-02 4.999352164147e-02 3.488548629811e-02 2.167835353509e-02 1.080007446257e-02 2.990546118129e-03 -5.519730813148e-04 -2.297803435225e-04 
        </DataArray>
        <DataArray type="Float64" Name="STRESS_XY" format="ascii">
          8.545055471366e-08 -1.134142635494e-06 -2.709428348056e-06 -4.297106804184e-06 -5.930935666684e-06 -7.451236251592e-06 -8.678967287820e-06 -9.456964779330e-06 -9.726206192337e-06 -1.092770500361e-05 2.454523665728e-05 -3.555579408557e-06 -1.324252638235e-03 -2.523972718995e-03 -3.495006562193e-03 -4.170053372070e-03 -4.514645820948e-03 -4.511772463915e-03 -4.139604388748e-03 -3.348399179679e-03 -2.042732776042e-03 -7.043932040094e-05 -7.827251716847e-06 -2.649394601156e-03 -5.034967465067e-03 -6.945441691629e-03 -8.250341012723e-03 -8.892133007598e-03 -8.850993582534e-03 -8.096874726963e-03 -6.540571871282e-03 -3.993959568630e-03 -1.404230561208e-04 -1.288065006707e-05 -3.975042295444e-03 -7.518068215240e-03 -1.029908077253e-02 -1.213659507562e-02 -1.297562249978e-02 -1.282240221890e-02 -1.166522862500e-02 -9.396654383663e-03 -5.744840278293e-03 -2.085623145266e-04 -1.969142820578e-05 -5.303900814491e-03 -9.952674155643e-03 -1.348267349026e-02 -1.568914882485e-02 -1.656514039656e-02 -1.618558732726e-02 -1.459279598049e-02 -1.169281995034e-02 -7.152365030271e-03 -2.707142761892e-04 -2.993552333624e-05 -6.639231882030e-03 -1.229885439112e-02 -1.637164882565e-02 -1.869526743938e-02 -1.938510203566e-02 -1.863388927285e-02 -1.657024939221e-02 -1.315087760847e-02 -8.027930840972e-03 -3.182500169461e-04 -4.732603676371e-05 -7.978810696595e-03 -1.445838346704e-02 -1.871976217821e-02 -2.079712971434e-02 -2.103612268257e-02 -1.977770519243e-02 -1.723774622144e-02 -1.345017673548e-02 -8.137472695723e-03 -3.351163423249e-04 -8.160774640741e-05 -9.295280483233e-03 -1.616591591285e-02 -1.999985617038e-02 -2.136275441642e-02 -2.092825465612e-02 -1.913782986581e-02 -1.622517707467e-02 -1.228455558578e-02 -7.228983572957e-03 -2.922791456683e-04 -1.653999855015e-04 -1.046317830862e-02 -1.665890578391e-02 -1.907038910112e-02 -1.930524002212e-02 -1.821532171382e-02 -1.615192462891e-02 -1.322788464515e-02 -9.498889837545e-03 -5.131645434101e-03 -1.342089746559e-04 -5.215106456854e-04 -1.090875794078e-02 -1.354933649117e-02 -1.370449205880e-02 -1.299652772763e-02 -1.180127531753e-02 -1.017619902563e-02 -8.045472883169e-03 -5.301743978697e-03 -2.090600396571e-03 2.464024829530e-04 -2.229258533699e-03 -2.309820030140e-03 -1.185595194404e-03 -8.071460279053e-04 -6.148662539504e-04 -4.937502103637e-04 -3.982712422556e-04 -2.912372065297e-04 -1.136739376200e-04 2.548309733936e-04 3.149266686746e-04 
        </DataArray>
        <DataArray type="Float64" Name="STRESS_YY" format="ascii">
          -6.707796556031e-02 -4.691054388899e-02 -3.013448493168e-02 -1.638923214692e-02 -5.124022071275e-03 4.351674784163e-03 1.282720342697e-02 2.117383074984e-02 3.035872089485e-02 4.148817025104e-02 5.587454576993e-02 -6.639647410569e-02 -4.626669628039e-02 -2.958181842255e-02 -1.596953280881e-02 -4.862389669296e-03 4.442921095743e-03 1.273905091852e-02 2.088905262383e-02 2.984141885628e-02 4.067783920669e-02 5.468906459311e-02 -6.437616532142e-02 -4.434564527685e-02 -2.793907089834e-02 -1.473350755506e-02 -4.104734206664e-03 4.691734491969e-03 1.245910934237e-02 2.003485592474e-02 2.830875295304e-02 3.828309982316e-02 5.117590102791e-02 -6.100993527566e-02 -4.115669709103e-02 -2.524161718444e-02 -1.274267531509e-02 -2.925338168215e-03 5.031586057162e-03 1.194999885249e-02 1.862156417797e-02 2.583029628177e-02 3.442914591676e-02 4.548412110614e-02 -5.628907010044e-02 -3.671354967716e-02 -2.155544978605e-02 -1.011140257368e-02 -1.458148794304e-03 5.345779275564e-03 1.114667550690e-02 1.666554180788e-02 2.252617188694e-02 2.934174525159e-02 3.790048053936e-02 -5.019561496693e-02 -3.104058760079e-02 -1.699640046770e-02 -7.029006125631e-03 9.035878323782e-05 5.465825828270e-03 9.959574768108e-03 1.419117994160e-02 1.857105623840e-02 2.336824351135e-02 2.890609462331e-02 -4.269702408510e-02 -2.418781542757e-02 -1.177401834479e-02 -3.798623297178e-03 1.432317421459e-03 5.187978207496e-03 8.296950149719e-03 1.124229366577e-02 1.419506959376e-02 1.699497326571e-02 1.925006262290e-02 -3.373851601624e-02 -1.627778468790e-02 -6.294544656533e-03 -8.955177280190e-04 2.218005038790e-03 4.335928016530e-03 6.129552003329e-03 7.917002420893e-03 9.676754021452e-03 1.083962260283e-02 1.002921546966e-02 -2.321603651525e-02 -7.656932467289e-03 -1.408180031299e-03 1.001433144756e-03 2.150602659910e-03 2.905214102503e-03 3.621604845004e-03 4.455125457830e-03 5.335289652810e-03 5.569956184324e-03 2.750976724161e-03 -1.046487651288e-02 2.208207277253e-04 1.182376825949e-03 1.311794336571e-03 1.299207675055e-03 1.280107386787e-03 1.308799771926e-03 1.421569119987e-03 1.617327416487e-03 1.640259796622e-03 -6.673617595250e-04 2.592960309525e-03 2.110938023193e-03 1.203662062136e-03 8.718734357270e-04 6.536708532022e-04 4.634586394944e-04 2.732496269229e-04 7.206569758571e-05 -1.284169567698e-04 -2.272355971954e-04 -2.306113045367e-04 
        </DataArray>
        <DataArray type="Float64" Name="STRESS_ZZ" format="ascii">
          -1.826694654038e-01 -1.610729588862e-01 -1.401119810284e-01 -1.197306531891e-01 -9.984304448239e-02 -8.033656007236e-02 -6.107647932385e-02 -4.190899649559e-02 -2.266191962452e-02 -3.142245999483e-03 1.684233839711e-02 -1.823324444774e-01 -1.607488968746e-01 -1.398160357986e-01 -1.194786168535e-01 -9.964818152035e-02 -8.020962441146e-02 -6.102656384241e-02 -4.194483835470e-02 -2.279317913979e-02 -3.380265339794e-03 1.648491665352e-02 -1.813143019263e-01 -1.597606711692e-01 -1.389137033753e-01 -1.187108286203e-01 -9.905468647700e-02 -7.982170883724e-02 -6.087005096958e-02 -4.204449681882e-02 -2.317708582351e-02 -4.082585391147e-03 1.542529447571e-02 -1.795528318176e-01 -1.580514539097e-01 -1.373554788748e-01 -1.173878209378e-01 -9.803242684442e-02 -7.914860940668e-02 -6.058378587511e-02 -4.218100406160e-02 -2.377959703379e-02 -5.208074015203e-03 1.370720218004e-02 -1.769394190456e-01 -1.555190882448e-01 -1.350557546268e-01 -1.154448388583e-01 -9.653540916430e-02 -7.815587408516e-02 -6.013506597425e-02 -4.231358791594e-02 -2.454457421658e-02 -6.683419029438e-03 1.141512678849e-02 -1.733036413291e-01 -1.520054314133e-01 -1.318882000080e-01 -1.127946889591e-01 -9.450992372965e-02 -7.680934351346e-02 -5.949218452474e-02 -4.239593097245e-02 -2.539680671320e-02 -8.397401692640e-03 8.691644613623e-03 -1.683841032129e-01 -1.472739246478e-01 -1.276790080174e-01 -1.093356404343e-01 -9.191019912572e-02 -7.509299289186e-02 -5.864208192407e-02 -4.239179325172e-02 -2.625140740826e-02 -1.019730839653e-02 5.760244846058e-03 -1.617659841459e-01 -1.409651483236e-01 -1.222020339025e-01 -1.049741185206e-01 -8.872714451603e-02 -7.303534466004e-02 -5.761586064411e-02 -4.230182536115e-02 -2.703746580112e-02 -1.189540747145e-02 2.951078151758e-03 -1.527267493825e-01 -1.325040556645e-01 -1.152058246847e-01 -9.968840796374e-02 -8.503525611793e-02 -7.074048185659e-02 -5.651783314221e-02 -4.220398319723e-02 -2.775186015862e-02 -1.330713750028e-02 7.252357645843e-04 -1.396852683320e-01 -1.209591595379e-01 -1.066348817328e-01 -9.366516836829e-02 -8.104603898416e-02 -6.840873644943e-02 -5.554376796062e-02 -4.229892407986e-02 -2.856740902115e-02 -1.439829361044e-02 -3.047867248739e-04 -1.164455322137e-01 -1.061873647534e-01 -9.715247106596e-02 -8.737190437071e-02 -7.708950222906e-02 -6.629836649503e-02 -5.493695902887e-02 -4.288018793280e-02 -2.990258123768e-02 -1.561437259624e-02 -1.381174944178e-04 
        </DataArray>
        <DataArray type="Float64" Name="STRAIN_XX" format="ascii">
          9.504622706521e-03 8.201881987421e-03 7.017284185615e-03 5.936580493694e-03 4.938088269765e-03 3.995324148814e-03 3.078883563412e-03 2.157047328837e-03 1.194815551525e-03 1.515813861991e-04 -1.026118239509e-03 9.511115940755e-03 8.208833711739e-03 7.025819141263e-03 5.947004354569e-03 4.950038850509e-03 4.008010718641e-03 3.091550637444e-03 2.169499293497e-03 1.207879303294e-03 1.673641651859e-04 -1.004358894700e-03 9.533114241660e-03 8.232655219763e-03 7.054462152494e-03 5.981391250329e-03 4.988863431306e-03 4.048640234198e-03 3.131487769028e-03 2.207983025290e-03 1.247305433466e-03 2.141637069072e-04 -9.399338774592e-04 9.579163143414e-03 8.282131079069e-03 7.112553794877e-03 6.049250364222e-03 5.063512925060e-03 4.124827277275e-03 3.204353535222e-03 2.275754801529e-03 1.313704306550e-03 2.901712268442e-04 -8.357544837391e-04 9.664412064706e-03 8.372865247909e-03 7.216544871125e-03 6.167015018697e-03 5.188922803328e-03 4.248772322895e-03 3.318898172454e-03 2.377690899447e-03 1.407748636336e-03 3.920001627908e-04 -6.973685766388e-04 9.812366067872e-03 8.529210090268e-03 7.391853675718e-03 6.358999430367e-03 5.385632928771e-03 4.435839729989e-03 3.485246014863e-03 2.518971684594e-03 1.529488879353e-03 5.142130921843e-04 -5.339651277289e-04 1.005876753484e-02 8.788430726623e-03 7.676557752459e-03 6.658663692979e-03 5.678075074909e-03 4.700957132808e-03 3.710962993876e-03 2.702119458157e-03 1.676940968067e-03 6.487623454008e-04 -3.596351766698e-04 1.046014375771e-02 9.210029848296e-03 8.128470721688e-03 7.108945243693e-03 6.089211824759e-03 5.050918952717e-03 3.993367222742e-03 2.920966182905e-03 1.843104449924e-03 7.845268851385e-04 -1.945893515980e-04 1.111441941316e-02 9.898515872703e-03 8.836545036662e-03 7.755006476446e-03 6.626657121591e-03 5.470967139639e-03 4.307225066946e-03 3.149405609058e-03 2.008671471900e-03 9.068277703723e-04 -6.554228200812e-05 1.220883137427e-02 1.107844154400e-02 9.914202324279e-03 8.605817137883e-03 7.255582778070e-03 5.908376653869e-03 4.591097018333e-03 3.323483508831e-03 2.121029536546e-03 9.924832514781e-04 -2.711878320714e-06 1.475733986743e-02 1.309513797395e-02 1.128256620756e-02 9.542077358379e-03 7.867044334842e-03 6.263762315766e-03 4.742852682531e-03 3.323063862570e-03 2.036241217264e-03 9.324342556858e-04 -5.674366849342e-06 
        </DataArray>
        <DataArray type="Float64" Name="STRAIN_XY" format="ascii">