<?xml version="1.0"?>
<!-- Time step: 1 | Time: 1.000000000000e+01 -->
<VTKFile type="UnstructuredGrid" version="0.1" byte_order="LittleEndian">
  <UnstructuredGrid>
    <Piece NumberOfPoints="121" NumberOfCells="100">
      <Points>
        <DataArray type="Float64" NumberOfComponents="3" format="ascii">
          0.000000000000e+00 0.000000000000e+00 0.000000000000e+00
          1.000000000000e-01 0.000000000000e+00 0.000000000000e+00
          2.000000000000e-01 0.000000000000e+00 0.000000000000e+00
          3.000000000000e-01 0.000000000000e+00 0.000000000000e+00
          4.000000000000e-01 0.000000000000e+00 0.000000000000e+00
          5.000000000000e-01 0.000000000000e+00 0.000000000000e+00
          6.000000000000e-01 0.000000000000e+00 0.000000000000e+00
          7.000000000000e-01 0.000000000000e+00 0.000000000000e+00
          8.000000000000e-01 0.000000000000e+00 0.000000000000e+00
          9.000000000000e-01 0.000000000000e+00 0.000000000000e+00
          1.000000000000e+00 0.000000000000e+00 0.000000000000e+00
          0.000000000000e+00 1.000000000000e-01 0.000000000000e+00
          1.000000000000e-01 1.000000000000e-01 0.000000000000e+00
          2.000000000000e-01 1.000000000000e-01 0.000000000000e+00
          3.000000000000e-01 1.000000000000e-01 0.000000000000e+00
          4.000000000000e-01 1.000000000000e-01 0.000000000000e+00
          5.000000000000e-01 1.000000000000e-01 0.000000000000e+00
          6.000000000000e-01 1.000000000000e-01 0.000000000000e+00
          7.000000000000e-01 1.000000000000e-01 0.000000000000e+00
          8.000000000000e-01 1.000000000000e-01 0.000000000000e+00
          9.000000000000e-01 1.000000000000e-01 0.000000000000e+00
          1.000000000000e+00 1.000000000000e-01 0.000000000000e+00
          0.000000000000e+00 2.000000000000e-01 0.000000000000e+00
          1.000000000000e-01 2.000000000000e-01 0.000000000000e+00
          2.000000000000e-01 2.000000000000e-01 0.000000000000e+00
          3.000000000000e-01 2.000000000000e-01 0.000000000000e+00
          4.000000000000e-01 2.000000000000e-01 0.000000000000e+00
          5.000000000000e-01 2.000000000000e-01 0.000000000000e+00
          6.000000000000e-01 2.000000000000e-01 0.000000000000e+00
          7.000000000000e-01 2.000000000000e-01 0.000000000000e+00
          8.000000000000e-01 2.000000000000e-01 0.000000000000e+00
          9.000000000000e-01 2.000000000000e-01 0.000000000000e+00
          1.000000000000e+00 2.000000000000e-01 0.000000000000e+00
          0.000000000000e+00 3.000000000000e-01 0.000000000000e+00
          1.000000000000e-01 3.000000000000e-01 0.000000000000e+00
          2.000000000000e-01 3.000000000000e-01 0.000000000000e+00
          3.000000000000e-01 3.000000000000e-01 0.000000000000e+00
          4.000000000000e-01 3.000000000000e-01 0.000000000000e+00
          5.000000000000e-01 3.000000000000e-01 0.000000000000e+00
          6.000000000000e-01 3.000000000000e-01 0.000000000000e+00
          7.000000000000e-01 3.000000000000e-01 0.000000000000e+00
          8.000000000000e-01 3.000000000000e-01 0.000000000000e+00
          9.000000000000e-01 3.000000000000e-01 0.000000000000e+00
          1.000000000000e+00 3.000000000000e-01 0.000000000000e+00
          0.000000000000e+00 4.000000000000e-01 0.000000000000e+00
          1.000000000000e-01 4.000000000000e-01 0.000000000000e+00
          2.000000000000e-01 4.000000000000e-01 0.000000000000e+00
          3.000000000000e-01 4.000000000000e-01 0.000000000000e+00
          4.000000000000e-01 4.000000000000e-01 0.000000000000e+00
          5.000000000000e-01 4.000000000000e-01 0.000000000000e+00
          6.000000000000e-01 4.000000000000e-01 0.000000000000e+00
          7.000000000000e-01 4.000000000000e-01 0.000000000000e+00
          8.000000000000e-01 4.000000000000e-01 0.000000000000e+00
          9.000000000000e-01 4.000000000000e-01 0.000000000000e+00
          1.000000000000e+00 4.000000000000e-01 0.000000000000e+00
          0.000000000000e+00 5.000000000000e-01 0.000000000000e+00
          1.000000000000e-01 5.000000000000e-01 0.000000000000e+00
          2.000000000000e-01 5.000000000000e-01 0.000000000000e+00
          3.000000000000e-01 5.000000000000e-01 0.000000000000e+00
          4.000000000000e-01 5.000000000000e-01 0.000000000000e+00
          5.000000000000e-01 5.000000000000e-01 0.000000000000e+00
          6.000000000000e-01 5.000000000000e-01 0.000000000000e+00
          7.000000000000e-01 5.000000000000e-01 0.000000000000e+00
          8.000000000000e-01 5.000000000000e-01 0.000000000000e+00
          9.000000000000e-01 5.000000000000e-01 0.000000000000e+00
          1.000000000000e+00 5.000000000000e-01 0.000000000000e+00
          0.000000000000e+00 6.000000000000e-01 0.000000000000e+00
          1.000000000000e-01 6.000000000000e-01 0.000000000000e+00
          2.000000000000e-01 6.000000000000e-01 0.000000000000e+00
          3.000000000000e-01 6.000000000000e-01 0.000000000000e+00
          4.000000000000e-01 6.000000000000e-01 0.000000000000e+00
          5.000000000000e-01 6.000000000000e-01 0.000000000000e+00
          6.000000000000e-01 6.000000000000e-01 0.000000000000e+00
          7.000000000000e-01 6.000000000000e-01 0.000000000000e+00
          8.000000000000e-01 6.000000000000e-01 0.000000000000e+00
          9.000000000000e-01 6.000000000000e-01 0.000000000000e+00
          1.000000000000e+00 6.000000000000e-01 0.000000000000e+00
          0.000000000000e+00 7.000000000000e-01 0.000000000000e+00
          1.000000000000e-01 7.000000000000e-01 0.000000000000e+00
          2.000000000000e-01 7.000000000000e-01 0.000000000000e+00
          3.000000000000e-01 7.000000000000e-01 0.000000000000e+00
          4.000000000000e-01 7.000000000000e-01 0.000000000000e+00
          5.000000000000e-01 7.000000000000e-01 0.000000000000e+00
          6.000000000000e-01 7.000000000000e-01 0.000000000000e+00
          7.000000000000e-01 7.000000000000e-01 0.000000000000e+00
          8.000000000000e-01 7.000000000000e-01 0.000000000000e+00
          9.000000000000e-01 7.000000000000e-01 0.000000000000e+00
          1.000000000000e+00 7.000000000000e-01 0.000000000000e+00
          0.000000000000e+00 8.000000000000e-01 0.000000000000e+00
          1.000000000000e-01 8.000000000000e-01 0.000000000000e+00
          2.000000000000e-01 8.000000000000e-01 0.000000000000e+00
          3.000000000000e-01 8.000000000000e-01 0.000000000000e+00
          4.000000000000e-01 8.000000000000e-01 0.000000000000e+00
          5.000000000000e-01 8.000000000000e-01 0.000000000000e+00
          6.000000000000e-01 8.000000000000e-01 0.000000000000e+00
          7.000000000000e-01 8.000000000000e-01 0.000000000000e+00
          8.000000000000e-01 8.000000000000e-01 0.000000000000e+00
          9.000000000000e-01 8.000000000000e-01 0.000000000000e+00
          1.000000000000e+00 8.000000000000e-01 0.000000000000e+00
          0.000000000000e+00 9.000000000000e-01 0.000000000000e+00
          1.000000000000e-01 9.000000000000e-01 0.000000000000e+00
          2.000000000000e-01 9.000000000000e-01 0.000000000000e+00
          3.000000000000e-01 9.000000000000e-01 0.000000000000e+00
          4.000000000000e-01 9.000000000000e-01 0.000000000000e+00
          5.000000000000e-01 9.000000000000e-01 0.000000000000e+00
          6.000000000000e-01 9.000000000000e-01 0.000000000000e+00
          7.000000000000e-01 9.000000000000e-01 0.000000000000e+00
          8.000000000000e-01 9.000000000000e-01 0.000000000000e+00
          9.000000000000e-01 9.000000000000e-01 0.000000000000e+00
          1.000000000000e+00 9.000000000000e-01 0.000000000000e+00
          0.000000000000e+00 1.000000000000e+00 0.000000000000e+00
          1.000000000000e-01 1.000000000000e+00 0.000000000000e+00
          2.000000000000e-01 1.000000000000e+00 0.000000000000e+00
          3.000000000000e-01 1.000000000000e+00 0.000000000000e+00
          4.000000000000e-01 1.000000000000e+00 0.000000000000e+00
          5.000000000000e-01 1.000000000000e+00 0.000000000000e+00
          6.000000000000e-01 1.000000000000e+00 0.000000000000e+00
          7.000000000000e-01 1.000000000000e+00 0.000000000000e+00
          8.000000000000e-01 1.000000000000e+00 0.000000000000e+00
          9.000000000000e-01 1.000000000000e+00 0.000000000000e+00
          1.000000000000e+00 1.000000000000e+00 0.000000000000e+00
        </DataArray>
      </Points>
      <Cells>
        <DataArray type="Int64" Name="connectivity" format="ascii">
          0 1 12 11 
          1 2 13 12 
          2 3 14 13 
          3 4 15 14 
          4 5 16 15 
          5 6 17 16 
          6 7 18 17 
          7 8 19 18 
          8 9 20 19 
          9 10 21 20 
          11 12 23 22 
          12 13 24 23 
          13 14 25 24 
          14 15 26 25 
          15 16 27 26 
          16 17 28 27 
          17 18 29 28 
          18 19 30 29 
          19 20 31 30 
          20 21 32 31 
          22 23 34 33 
          23 24 35 34 
          24 25 36 35 
          25 26 37 36 
          26 27 38 37 
          27 28 39 38 
          28 29 40 39 
          29 30 41 40 
          30 31 42 41 
          31 32 43 42 
          33 34 45 44 
          34 35 46 45 
          35 36 47 46 
          36 37 48 47 
          37 38 49 48 
          38 39 50 49 
          39 40 51 50 
          40 41 52 51 
          41 42 53 52 
          42 43 54 53 
          44 45 56 55 
          45 46 57 56 
          46 47 58 57 
          47 48 59 58 
          48 49 60 59 
          49 50 61 60 
          50 51 62 61 
          51 52 63 62 
          52 53 64 63 
          53 54 65 64 
          55 56 67 66 
          56 57 68 67 
          57 58 69 68 
          58 59 70 69 
          59 60 71 70 
          60 61 72 71 
          61 62 73 72 
          62 63 74 73 
          63 64 75 74 
          64 65 76 75 
          66 67 78 77 
          67 68 79 78 
          68 69 80 79 
          69 70 81 80 
          70 71 82 81 
          71 72 83 82 
          72 73 84 83 
          73 74 85 84 
          74 75 86 85 
          75 76 87 86 
          77 78 89 88 
          78 79 90 89 
          79 80 91 90 
          80 81 92 91 
          81 82 93 92 
          82 83 94 93 
          83 84 95 94 
          84 85 96 95 
          85 86 97 96 
          86 87 98 97 
          88 89 100 99 
          89 90 101 100 
          90 91 102 101 
          91 92 103 102 
          92 93 104 103 
          93 94 105 104 
          94 95 106 105 
          95 96 107 106 
          96 97 108 107 
          97 98 109 108 
          99 100 111 110 
          100 101 112 111 
          101 102 113 112 
          102 103 114 113 
          103 104 115 114 
          104 105 116 115 
          105 106 117 116 
          106 107 118 117 
          107 108 119 118 
          108 109 120 119 
        </DataArray>
        <DataArray type="Int64" Name="offsets" format="ascii">
          4 8 12 16 20 24 28 32 36 40 44 48 52 56 60 64 68 72 76 80 84 88 92 96 100 104 108 112 116 120 124 128 132 136 140 144 148 152 156 160 164 168 172 176 180 184 188 192 196 200 204 208 212 216 220 224 228 232 236 240 244 248 252 256 260 264 268 272 276 280 284 288 292 296 300 304 308 312 316 320 324 328 332 336 340 344 348 352 356 360 364 368 372 376 380 384 388 392 396 400 
        </DataArray>
        <DataArray type="UInt8" Name="types" format="ascii">
          9 9 9 9 9 9 9 9 9 9 9 9 9 9 9 9 9 9 9 9 9 9 9 9 9 9 9 9 9 9 9 9 9 9 9 9 9 9 9 9 9 9 9 9 9 9 9 9 9 9 9 9 9 9 9 9 9 9 9 9 9 9 9 9 9 9 9 9 9 9 9 9 9 9 9 9 9 9 9 9 9 9 9 9 9 9 9 9 9 9 9 9 9 9 9 9 9 9 9 9 
        </DataArray>
      </Cells>
      <PointData Scalars="PRESSURE1">
        <DataArray type="Float64" Name="PRESSURE1" format="ascii">
          1.254727200598e-03 1.137802057867e-03 1.014245108734e-03 8.889628923977e-04 7.628391086934e-04 6.362163648857e-04 5.092709865773e-04 3.821109322308e-04 2.548103302164e-04 1.274248318442e-04 0.000000000000e+00 1.265093373618e-03 1.139756193365e-03 1.015061587252e-03 8.894066519219e-04 7.631145494001e-04 6.363982611538e-04 5.093933529620e-04 3.821916395098e-04 2.548595090303e-04 1.274481437082e-04 0.000000000000e+00 1.269941815932e-03 1.143078388378e-03 1.016799719123e-03 8.904490776687e-04 7.637917671824e-04 6.368557140183e-04 5.097046518997e-04 3.823981667947e-04 2.549857281313e-04 1.275080579145e-04 0.000000000000e+00 1.273249983563e-03 1.145863399523e-03 1.018810336919e-03 8.918276427244e-04 7.647480003419e-04 6.375234751971e-04 5.101668858686e-04 3.827075182507e-04 2.551756184902e-04 1.275983802093e-04 0.000000000000e+00 1.275935802181e-03 1.148293542814e-03 1.020791422587e-03 8.933372357946e-04 7.658587868271e-04 6.383239465534e-04 5.107301334922e-04 3.830876542403e-04 2.554099453249e-04 1.277100586145e-04 0.000000000000e+00 1.278388913824e-03 1.150568975817e-03 1.022729981668e-03 8.948814236256e-04 7.670313486715e-04 6.391841614102e-04 5.113411616462e-04 3.835020478229e-04 2.556660165983e-04 1.278322418868e-04 0.000000000000e+00 1.280863936514e-03 1.152859639164e-03 1.024673549688e-03 8.964227717540e-04 7.681977057862e-04 6.400380027796e-04 5.119469769054e-04 3.839126752649e-04 2.559196963090e-04 1.279532743726e-04 0.000000000000e+00 1.283626642265e-03 1.155339252061e-03 1.026665668147e-03 8.979183717498e-04 7.692868316679e-04 6.408184060131e-04 5.124944873623e-04 3.842816579985e-04 2.561470035509e-04 1.280615871045e-04 0.000000000000e+00 1.287115499446e-03 1.158217376679e-03 1.028670647529e-03 8.992519660352e-04 7.701988768645e-04 6.414507618906e-04 5.129306592554e-04 3.845730795157e-04 2.563257663266e-04 1.281466035964e-04 0.000000000000e+00 1.292430954175e-03 1.161654902468e-03 1.030282239694e-03 9.001964228010e-04 7.708052681315e-04 6.418581339127e-04 5.132071661456e-04 3.847563312451e-04 2.564377317934e-04 1.281997562683e-04 0.000000000000e+00 1.304751683834e-03 1.162777556242e-03 1.030840439970e-03 9.004954705836e-04 7.709910314472e-04 6.419808118462e-04 5.132897234364e-04 3.848108152734e-04 2.564709586763e-04 1.282155173359e-04 0.000000000000e+00 
        </DataArray>
        <DataArray type="Float64" Name="TEMPERATURE1" format="ascii">
          5.231500000000e+02 4.690621114382e+02 4.155371161576e+02 3.625107820245e+02 3.099194753187e+02 2.577000843702e+02 2.057899438226e+02 1.541267594327e+02 1.026485333142e+02 5.129348953832e+01 0.000000000000e+00 5.231500000000e+02 4.690621114382e+02 4.155371161576e+02 3.625107820245e+02 3.099194753187e+02 2.577000843702e+02 2.057899438226e+02 1.541267594327e+02 1.026485333142e+02 5.129348953832e+01 0.000000000000e+00 5.231500000000e+02 4.690621114382e+02 4.155371161576e+02 3.625107820245e+02 3.099194753187e+02 2.577000843702e+02 2.057899438226e+02 1.541267594327e+02 1.026485333142e+02 5.129348953832e+01 0.000000000000e+00 5.231500000000e+02 4.690621114382e+02 4.155371161576e+02 3.625107820245e+02 3.099194753187e+02 2.577000843702e+02 2.057899438226e+02 1.541267594327e+02 1.026485333142e+02 5.129348953832e+01 0.000000000000e+00 5.231500000000e+02 4.690621114382e+02 4.155371161576e+02 3.625107820245e+02 3.099194753187e+02 2.577000843702e+02 2.057899438226e+02 1.541267594327e+02 1.026485333142e+02 5.129348953832e+01 0.000000000000e+00 5.231500000000e+02 4.690621114382e+02 4.155371161576e+02 3.625107820245e+02 3.099194753187e+02 2.577000843702e+02 2.057899438226e+02 1.541267594327e+02 1.026485333142e+02 5.129348953832e+01 0.000000000000e+00 5.231500000000e+02 4.690621114382e+02 4.155371161576e+02 3.625107820245e+02 3.099194753187e+02 2.577000843702e+02 2.057899438226e+02 1.541267594327e+02 1.026485333142e+02 5.129348953832e+01 0.000000000000e+00 5.231500000000e+02 4.690621114382e+02 4.155371161576e+02 3.625107820245e+02 3.099194753187e+02 2.577000843702e+02 2.057899438226e+02 1.541267594327e+02 1.026485333142e+02 5.129348953832e+01 0.000000000000e+00 5.231500000000e+02 4.690621114382e+02 4.155371161576e+02 3.625107820245e+02 3.099194753187e+02 2.577000843702e+02 2.057899438226e+02 1.541267594327e+02 1.026485333142e+02 5.129348953832e+01 0.000000000000e+00 5.231500000000e+02 4.690621114382e+02 4.155371161576e+02 3.625107820245e+02 3.099194753187e+02 2.577000843702e+02 2.057899438226e+02 1.541267594327e+02 1.026485333142e+02 5.129348953832e+01 0.000000000000e+00 5.231500000000e+02 4.690621114382e+02 4.155371161576e+02 3.625107820245e+02 3.099194753187e+02 2.577000843702e+02 2.057899438226e+02 1.541267594327e+02 1.026485333142e+02 5.129348953832e+01 0.000000000000e+00 
        </DataArray>
        <DataArray type="Float64" Name="STRESS_XX" format="ascii">
          -2.904742136027e-02 -2.849379207192e-02 -2.666546156028e-02 -2.373938327488e-02 -1.998308966732e-02 -1.571424411293e-02 -1.127375394648e-02 -7.018465689766e-03 -3.337525970787e-03 -6.881903722080e-04 2.648170768068e-04 -2.860921945148e-02 -2.806073772550e-02 -2.623387425835e-02 -2.331980016225e-02 -1.959471341338e-02 -1.538100067155e-02 -1.101748850492e-02 -6.851614170033e-03 -3.256785256616e-03 -6.709814570912e-04 2.588166583522e-04 -2.724738441184e-02 -2.669809395178e-02 -2.487587978119e-02 -2.199926196705e-02 -1.837280473936e-02 -1.433278611761e-02 -1.021078469772e-02 -6.325070252737e-03 -3.000935215042e-03 -6.164803343627e-04 2.396821812499e-04 -2.476320142983e-02 -2.420848113844e-02 -2.239204113405e-02 -1.958531443492e-02 -1.614315522248e-02 -1.242295708235e-02 -8.739673503542e-03 -5.359738208124e-03 -2.526302881357e-03 -5.127994952511e-04 2.041344022620e-04 -2.080557823709e-02 -2.023959935334e-02 -1.843230038763e-02 -1.574870535687e-02 -1.261964620572e-02 -9.421515031153e-03 -6.431830462979e-03 -3.837535011997e-03 -1.766689901851e-03 -3.414918374649e-04 1.471074415841e-04 -1.482656133374e-02 -1.424158817377e-02 -1.246068725200e-02 -1.001069071670e-02 -7.419203395798e-03 -5.049819968380e-03 -3.096222614265e-03 -1.632093243727e-03 -6.482223761540e-04 -7.969147108299e-05 6.291719229756e-05 -5.987438756837e-03 -5.375257086434e-03 -3.687473167175e-03 -1.730667327009e-03 -1.068520209173e-04 9.409741599172e-04 1.393379517635e-03 1.325885189786e-03 8.771868135878e-04 2.940213269056e-04 -5.217972889031e-05 7.047091507680e-03 7.688248797495e-03 9.052773066361e-03 9.874688506878e-03 9.684381983170e-03 8.614530465817e-03 6.945212804361e-03 4.922091176276e-03 2.758440163680e-03 7.849651624637e-04 -1.937723195745e-04 2.661117715699e-02 2.724224436989e-02 2.746143731545e-02 2.554150179711e-02 2.197127897657e-02 1.759356146311e-02 1.301755754897e-02 8.635298199878e-03 4.673192368690e-03 1.335406223300e-03 -3.312542885390e-04 5.740805159008e-02 5.794468290911e-02 5.342940313363e-02 4.516888381282e-02 3.590843951107e-02 2.676327305259e-02 1.837611503371e-02 1.120514503572e-02 5.587798729151e-03 1.598451702907e-03 -3.407065975412e-04 1.227763207488e-01 1.056249423721e-01 8.484480888749e-02 6.619111199126e-02 4.926904427541e-02 3.415788752457e-02 2.105953964972e-02 1.036628049232e-02 2.773266817367e-03 -5.884704813461e-04 -2.144674967466e-04 
        </DataArray>
        <DataArray type="Float64" Name="STRESS_XY" format="ascii">
          8.569818639865e-08 -1.110111553065e-06 -2.668038586456e-06 -4.248144648857e-06 -5.882964116242e-06 -7.409182053232e-06 -8.644205995362e-06 -9.428528466411e-06 -9.701047863065e-06 -1.089109780027e-05 2.436757991381e-05 -3.601123099270e-06 -1.326990748948e-03 -2.527434026777e-03 -3.495994751737e-03 -4.165489326586e-03 -4.502825816449e-03 -4.493200082831e-03 -4.117230937799e-03 -3.327265897481e-03 -2.029048022236e-03 -7.004891569566e-05 -7.933086574159e-06 -2.656446157562e-03 -5.044495083141e-03 -6.950232607360e-03 -8.243487969596e-03 -8.869771495460e-03 -8.814010155538e-03 -8.051336043379e-03 -6.496970532813e-03 -3.965391521267e-03 -1.395461141088e-04 -1.308129907894e-05 -3.989773073161e-03 -7.539148691362e-03 -1.031348253286e-02 -1.213204660115e-02 -1.294526251674e-02 -1.276736132983e-02 -1.159505391381e-02 -9.328049889818e-03 -5.699044829591e-03 -2.069884581488e-04 -2.005449706336e-05 -5.331908609850e-03 -9.994168504381e-03 -1.351568190064e-02 -1.569370359845e-02 -1.653042033104e-02 -1.611306998346e-02 -1.449615421809e-02 -1.159591706924e-02 -7.086108563264e-03 -2.680886323592e-04 -3.059326835713e-05 -6.689029293663e-03 -1.237349977817e-02 -1.643519268767e-02 -1.871717194028e-02 -1.935014302607e-02 -1.854472218540e-02 -1.644569199595e-02 -1.302274811277e-02 -7.937903877954e-03 -3.140512361535e-04 -4.855574186027e-05 -8.062725635895e-03 -1.458263447934e-02 -1.882684970678e-02 -2.084375666801e-02 -2.100412835586e-02 -1.967308587882e-02 -1.708577944711e-02 -1.329069658941e-02 -8.022313269298e-03 -3.287018977628e-04 -8.406907284280e-05 -9.430299350596e-03 -1.635689468554e-02 -2.015838391490e-02 -2.143537613940e-02 -2.089941635996e-02 -1.902026045645e-02 -1.605136248808e-02 -1.210088868723e-02 -7.093520433089e-03 -2.831692718654e-04 -1.710440478251e-04 -1.067004843897e-02 -1.692055092138e-02 -1.926691125286e-02 -1.939040077823e-02 -1.818598449189e-02 -1.602921108154e-02 -1.304878878507e-02 -9.312216662223e-03 -4.994381738676e-03 -1.232147187477e-04 -5.413012179058e-04 -1.119921706227e-02 -1.381755750418e-02 -1.387395187483e-02 -1.305954276477e-02 -1.177030346399e-02 -1.007348559146e-02 -7.901133157796e-03 -5.155285838705e-03 -1.991823164638e-03 2.521996485683e-04 -2.310225263546e-03 -2.392821787995e-03 -1.217927656999e-03 -8.198897041662e-04 -6.164425405096e-04 -4.879514271797e-04 -3.874043826413e-04 -2.772135589935e-04 -9.921598707161e-05 2.616572697023e-04 3.057936891128e-04 
        </DataArray>
        <DataArray type="Float64" Name="STRESS_YY" format="ascii">
          -6.825114784300e-02 -4.733813347996e-02 -3.004973865433e-02 -1.599538577393e-02 -4.594118813350e-03 4.873248662795e-03 1.322175582723e-02 2.134466601488e-02 3.022757445775e-02 4.099265735899e-02 5.496747682394e-02 -6.756824885437e-02 -4.669339394047e-02 -2.949751383457e-02 -1.557773542099e-02 -4.335764189896e-03 4.960899416836e-03 1.313087425522e-02 2.105918146412e-02 2.971242362646e-02 4.018756883233e-02 5.378969562751e-02 -6.554290422419e-02 -4.476899515663e-02 -2.785577344018e-02 -1.434794558589e-02 -3.588342419633e-03 5.198376443168e-03 1.284220585910e-02 2.020247070463e-02 2.818609186262e-02 3.780885571494e-02 5.030045237398e-02 -6.216545049030e-02 -4.157215022523e-02 -2.515894681650e-02 -1.236786396615e-02 -2.427391865215e-03 5.517494025154e-03 1.231678167987e-02 1.878369770934e-02 2.571777550661e-02 3.398255996196e-02 4.465129430162e-02 -5.742249676343e-02 -3.711282066647e-02 -2.147152282905e-02 -9.752655200507e-03 -9.891324395542e-04 5.798812499001e-03 1.148706994002e-02 1.681743048672e-02 2.242692609030e-02 2.893566008117e-02 3.713309317115e-02 -5.128862239661e-02 -3.140969415910e-02 -1.690757816225e-02 -6.693426080196e-03 5.164401482533e-04 5.870222295284e-03 1.026058323823e-02 1.432602005483e-02 1.848725792518e-02 2.301661580737e-02 2.823233798861e-02 -4.371994965669e-02 -2.450487925065e-02 -1.167565470156e-02 -3.497106120212e-03 1.796616818754e-03 5.524256383440e-03 8.543320608641e-03 1.135190565493e-02 1.412781633277e-02 1.671182422314e-02 1.870336108066e-02 -3.464476076127e-02 -1.651128981029e-02 -6.184585609728e-03 -6.462345064972e-04 2.496527883971e-03 4.582944746120e-03 6.306535285213e-03 7.994074203463e-03 9.626546845200e-03 1.063633534280e-02 9.644350022812e-03 -2.393305176234e-02 -7.767653258107e-03 -1.298472195279e-03 1.169733921747e-03 2.318856186072e-03 3.047033962827e-03 3.720756458917e-03 4.497110409700e-03 5.303738462294e-03 5.450658606359e-03 2.551537062583e-03 -1.086088857374e-02 2.470873585429e-04 1.242254864814e-03 1.371033780947e-03 1.350675532597e-03 1.321100392801e-03 1.337143776343e-03 1.434085403403e-03 1.608250819333e-03 1.600396421176e-03 -7.024625371808e-04 2.625695968655e-03 2.131098023980e-03 1.195490202784e-03 8.588547470812e-04 6.409077167754e-04 4.528588001002e-04 2.659676329755e-04 6.921624571529e-05 -1.255175261855e-04 -2.186687572992e-04 -2.159221584774e-04 
        </DataArray>
        <DataArray type="Float64" Name="STRESS_ZZ" format="ascii">
          -1.829956707610e-01 -1.606538384284e-01 -1.391824722147e-01 -1.184986006299e-01 -9.848948828791e-02 -7.901612343987e-02 -5.991784291962e-02 -4.101540717567e-02 -2.211165424828e-02 -2.988945828232e-03 1.656968817022e-02 -1.826593404918e-01 -1.603305002626e-01 -1.388873285782e-01 -1.182474305902e-01 -9.829546902469e-02 -7.888985518125e-02 -5.986822775876e-02 -4.105099708498e-02 -2.224197728341e-02 -3.225309711694e-03 1.621455368576e-02 -1.816431865908e-01 -1.593443874953e-01 -1.379874081167e-01 -1.174823321811e-01 -9.770466989140e-02 -7.850414770716e-02 -5.971281713544e-02 -4.115004713764e-02 -2.262312180010e-02 -3.922573310091e-03 1.516204036657e-02 -1.798846955760e-01 -1.576384501719e-01 -1.364332085355e-01 -1.161641234355e-01 -9.668748987001e-02 -7.783546372199e-02 -5.942911103095e-02 -4.128607942284e-02 -2.322122700679e-02 -5.039357784252e-03 1.345662861116e-02 -1.772745225002e-01 -1.551099867688e-01 -1.341390591153e-01 -1.142285780824e-01 -9.519895933729e-02 -7.685063556448e-02 -5.898567164074e-02 -4.141929863079e-02 -2.398059793783e-02 -6.502035451153e-03 1.118406018382e-02 -1.736406551191e-01 -1.515996454627e-01 -1.309783917746e-01 -1.115894049543e-01 -9.318715471797e-02 -7.551770410676e-02 -5.835293529666e-02 -4.150508922987e-02 -2.482695812966e-02 -8.199208623378e-03 8.488576554271e-03 -1.687183165241e-01 -1.468683016640e-01 -1.267768505109e-01 -1.081465019494e-01 -9.060939630435e-02 -7.382425564182e-02 -5.752123344597e-02 -4.150993001979e-02 -2.567716785046e-02 -9.978532259252e-03 5.595354405531e-03 -1.620854007761e-01 -1.405511730667e-01 -1.213074559133e-01 -1.038096337151e-01 -8.746205278356e-02 -7.180458224125e-02 -5.652671905698e-02 -4.143841765928e-02 -2.646317269171e-02 -1.165389577269e-02 2.835173310971e-03 -1.530026623816e-01 -1.320618834293e-01 -1.143190226143e-01 -9.856479919955e-02 -8.382928519491e-02 -6.957164617705e-02 -5.548074928149e-02 -4.137354469033e-02 -2.718558954507e-02 -1.304446647537e-02 6.660848322133e-04 -1.398419510951e-01 -1.204467296825e-01 -1.057664147508e-01 -9.261619463708e-02 -7.993859123061e-02 -6.733851277121e-02 -5.458826584084e-02 -4.152149814147e-02 -2.801985392982e-02 -1.412063148704e-02 -3.129507404166e-04 -1.161854949848e-01 -1.055774486440e-01 -9.635582242324e-02 -8.646317989370e-02 -7.614334014605e-02 -6.538060090743e-02 -5.410459129904e-02 -4.218261825180e-02 -2.938434400701e-02 -1.532242769586e-02 -1.291168965672e-04 
        </DataArray>
        <DataArray type="Float64" Name="STRAIN_XX" format="ascii">
          9.530129724806e-03 8.181336203020e-03 6.965338754798e-03 5.866046788641e-03 4.859919914608e-03 3.918687767858e-03 3.011300745957e-03 2.104572568175e-03 1.162207940988e-03 1.424277187062e-04 -1.009349162926e-03 9.536436064398e-03 8.188128157059e-03 6.973785267419e-03 5.876472359824e-03 4.871951537843e-03 3.931500517267e-03 3.024093382381e-03 2.117104656640e-03 1.175273792135e-03 1.581250824278e-04 -9.877361016965e-04 9.557835372984e-03 8.211437219364e-03 7.002142230296e-03 5.910856727536e-03 4.911020223698e-03 3.972512860306e-03 3.064411531859e-03 2.155831902399e-03 1.214706788599e-03 2.046628984975e-04 -9.237650305198e-04 9.602759161432e-03 8.259950463978e-03 7.059691315327e-03 5.978688176228e-03 4.986077859133e-03 4.049345649120e-03 3.137917561221e-03 2.224011599006e-03 1.281114350622e-03 2.802155131286e-04 -8.203924986463e-04 9.686172740095e-03 8.349119220955e-03 7.162799349810e-03 6.096373073487e-03 5.112052717669e-03 4.174183652063e-03 3.253333025290e-03 2.326490128782e-03 1.375146687942e-03 3.813669856093e-04 -6.832399316622e-04 9.831348662904e-03 8.503117832171e-03 7.336810279970e-03 6.288206119469e-03 5.309444605658e-03 4.362297589519e-03 3.420653642244e-03 2.468328322952e-03 1.496778879979e-03 5.026367760945e-04 -5.215884366936e-04 1.007381624273e-02 8.759093235751e-03 7.619818597471e-03 6.587646905194e-03 5.602538455641e-03 4.628323749632e-03 3.647095088223e-03 2.651740941545e-03 1.643841003013e-03 6.359199839050e-04 -3.496092559404e-04 1.047010666518e-02 9.176726115400e-03 8.069918936838e-03 7.037600899455e-03 6.013826914131e-03 4.978326024723e-03 3.929214829512e-03 2.869936261249e-03 1.808956986286e-03 7.700247245570e-04 -1.875061580814e-04 1.111895197144e-02 9.861684101854e-03 8.776885614697e-03 7.682771014079e-03 6.549558734425e-03 5.395941425343e-03 4.240371375219e-03 3.095785512251e-03 1.972210308947e-03 8.901825956318e-04 -6.174004080848e-05 1.221071445194e-02 1.104327792234e-02 9.854979202369e-03 8.529552475470e-03 7.171482855437e-03 5.825348646236e-03 4.516842625567e-03 3.264030291921e-03 2.080473736032e-03 9.730861022348e-04 -1.718219726761e-06 1.479287430732e-02 1.307443372957e-02 1.121718193828e-02 9.450027592879e-03 7.763623797519e-03 6.161906426743e-03 4.653017630161e-03 3.253027065112e-03 1.990709241509e-03 9.121021132794e-04 -5.283608582537e-06 
        </DataArray>
        <DataArray type="Float64" Name="STRAIN_XY" format="ascii">