<?xml version="1.0"?>
<!-- Time step: 3 | Time: 3.000000000000e+01 -->
<VTKFile type="UnstructuredGrid" version="0.1" byte_order="LittleEndian">
  <UnstructuredGrid>
    <Piece NumberOfPoints="121" NumberOfCells="100">
      <Points>
        <DataArray type="Float64" NumberOfComponents="3" format="ascii">
          0.000000000000e+00 0.000000000000e+00 0.000000000000e+00
          1.000000000000e-01 0.000000000000e+00 0.000000000000e+00
          2.000000000000e-01 0.000000000000e+00 0.000000000000e+00
          3.000000000000e-01 0.000000000000e+00 0.000000000000e+00
          4.000000000000e-01 0.000000000000e+00 0.000000000000e+00
          5.000000000000e-01 0.000000000000e+00 0.000000000000e+00
          6.000000000000e-01 0.000000000000e+00 0.000000000000e+00
          7.000000000000e-01 0.000000000000e+00 0.000000000000e+00
          8.000000000000e-01 0.000000000000e+00 0.000000000000e+00
          9.000000000000e-01 0.000000000000e+00 0.000000000000e+00
          1.000000000000e+00 0.000000000000e+00 0.000000000000e+00
          0.000000000000e+00 1.000000000000e-01 0.000000000000e+00
          1.000000000000e-01 1.000000000000e-01 0.000000000000e+00
          2.000000000000e-01 1.000000000000e-01 0.000000000000e+00
          3.000000000000e-01 1.000000000000e-01 0.000000000000e+00
          4.000000000000e-01 1.000000000000e-01 0.000000000000e+00
          5.000000000000e-01 1.000000000000e-01 0.000000000000e+00
          6.000000000000e-01 1.000000000000e-01 0.000000000000e+00
          7.000000000000e-01 1.000000000000e-01 0.000000000000e+00
          8.000000000000e-01 1.000000000000e-01 0.000000000000e+00
          9.000000000000e-01 1.000000000000e-01 0.000000000000e+00
          1.000000000000e+00 1.000000000000e-01 0.000000000000e+00
          0.000000000000e+00 2.000000000000e-01 0.000000000000e+00
          1.000000000000e-01 2.000000000000e-01 0.000000000000e+00
          2.000000000000e-01 2.000000000000e-01 0.000000000000e+00
          3.000000000000e-01 2.000000000000e-01 0.000000000000e+00
          4.000000000000e-01 2.000000000000e-01 0.000000000000e+00
          5.000000000000e-01 2.000000000000e-01 0.000000000000e+00
          6.000000000000e-01 2.000000000000e-01 0.000000000000e+00
          7.000000000000e-01 2.000000000000e-01 0.000000000000e+00
          8.000000000000e-01 2.000000000000e-01 0.000000000000e+00
          9.000000000000e-01 2.000000000000e-01 0.000000000000e+00
          1.000000000000e+00 2.000000000000e-01 0.000000000000e+00
          0.000000000000e+00 3.000000000000e-01 0.000000000000e+00
          1.000000000000e-01 3.000000000000e-01 0.000000000000e+00
          2.000000000000e-01 3.000000000000e-01 0.000000000000e+00
          3.000000000000e-01 3.000000000000e-01 0.000000000000e+00
          4.000000000000e-01 3.000000000000e-01 0.000000000000e+00
          5.000000000000e-01 3.000000000000e-01 0.000000000000e+00
          6.000000000000e-01 3.000000000000e-01 0.000000000000e+00
          7.000000000000e-01 3.000000000000e-01 0.000000000000e+00
          8.000000000000e-01 3.000000000000e-01 0.000000000000e+00
          9.000000000000e-01 3.000000000000e-01 0.000000000000e+00
          1.000000000000e+00 3.000000000000e-01 0.000000000000e+00
          0.000000000000e+00 4.000000000000e-01 0.000000000000e+00
          1.000000000000e-01 4.000000000000e-01 0.000000000000e+00
          2.000000000000e-01 4.000000000000e-01 0.000000000000e+00
          3.000000000000e-01 4.000000000000e-01 0.000000000000e+00
          4.000000000000e-01 4.000000000000e-01 0.000000000000e+00
          5.000000000000e-01 4.000000000000e-01 0.000000000000e+00
          6.000000000000e-01 4.000000000000e-01 0.000000000000e+00
          7.000000000000e-01 4.000000000000e-01 0.000000000000e+00
          8.000000000000e-01 4.000000000000e-01 0.000000000000e+00
          9.000000000000e-01 4.000000000000e-01 0.000000000000e+00
          1.000000000000e+00 4.000000000000e-01 0.000000000000e+00
          0.000000000000e+00 5.000000000000e-01 0.000000000000e+00
          1.000000000000e-01 5.000000000000e-01 0.000000000000e+00
          2.000000000000e-01 5.000000000000e-01 0.000000000000e+00
          3.000000000000e-01 5.000000000000e-01 0.000000000000e+00
          4.000000000000e-01 5.000000000000e-01 0.000000000000e+00
          5.000000000000e-01 5.000000000000e-01 0.000000000000e+00
          6.000000000000e-01 5.000000000000e-01 0.000000000000e+00
          7.000000000000e-01 5.000000000000e-01 0.000000000000e+00
          8.000000000000e-01 5.000000000000e-01 0.000000000000e+00
          9.000000000000e-01 5.000000000000e-01 0.000000000000e+00
          1.000000000000e+00 5.000000000000e-01 0.000000000000e+00
          0.000000000000e+00 6.000000000000e-01 0.000000000000e+00
          1.000000000000e-01 6.000000000000e-01 0.000000000000e+00
          2.000000000000e-01 6.000000000000e-01 0.000000000000e+00
          3.000000000000e-01 6.000000000000e-01 0.000000000000e+00
          4.000000000000e-01 6.000000000000e-01 0.000000000000e+00
          5.000000000000e-01 6.000000000000e-01 0.000000000000e+00
          6.000000000000e-01 6.000000000000e-01 0.000000000000e+00
          7.000000000000e-01 6.000000000000e-01 0.000000000000e+00
          8.000000000000e-01 6.000000000000e-01 0.000000000000e+00
          9.000000000000e-01 6.000000000000e-01 0.000000000000e+00
          1.000000000000e+00 6.000000000000e-01 0.000000000000e+00
          0.000000000000e+00 7.000000000000e-01 0.000000000000e+00
          1.000000000000e-01 7.000000000000e-01 0.000000000000e+00
          2.000000000000e-01 7.000000000000e-01 0.000000000000e+00
          3.000000000000e-01 7.000000000000e-01 0.000000000000e+00
          4.000000000000e-01 7.000000000000e-01 0.000000000000e+00
          5.000000000000e-01 7.000000000000e-01 0.000000000000e+00
          6.000000000000e-01 7.000000000000e-01 0.000000000000e+00
          7.000000000000e-01 7.000000000000e-01 0.000000000000e+00
          8.000000000000e-01 7.000000000000e-01 0.000000000000e+00
          9.000000000000e-01 7.000000000000e-01 0.000000000000e+00
          1.000000000000e+00 7.000000000000e-01 0.000000000000e+00
          0.000000000000e+00 8.000000000000e-01 0.000000000000e+00
          1.000000000000e-01 8.000000000000e-01 0.000000000000e+00
          2.000000000000e-01 8.000000000000e-01 0.000000000000e+00
          3.000000000000e-01 8.000000000000e-01 0.000000000000e+00
          4.000000000000e-01 8.000000000000e-01 0.000000000000e+00
          5.000000000000e-01 8.000000000000e-01 0.000000000000e+00
          6.000000000000e-01 8.000000000000e-01 0.000000000000e+00
          7.000000000000e-01 8.000000000000e-01 0.000000000000e+00
          8.000000000000e-01 8.000000000000e-01 0.000000000000e+00
          9.000000000000e-01 8.000000000000e-01 0.000000000000e+00
          1.000000000000e+00 8.000000000000e-01 0.000000000000e+00
          0.000000000000e+00 9.000000000000e-01 0.000000000000e+00
          1.000000000000e-01 9.000000000000e-01 0.000000000000e+00
          2.000000000000e-01 9.000000000000e-01 0.000000000000e+00
          3.000000000000e-01 9.000000000000e-01 0.000000000000e+00
          4.000000000000e-01 9.000000000000e-01 0.000000000000e+00
          5.000000000000e-01 9.000000000000e-01 0.000000000000e+00
          6.000000000000e-01 9.000000000000e-01 0.000000000000e+00
          7.000000000000e-01 9.000000000000e-01 0.000000000000e+00
          8.000000000000e-01 9.000000000000e-01 0.000000000000e+00
          9.000000000000e-01 9.000000000000e-01 0.000000000000e+00
          1.000000000000e+00 9.000000000000e-01 0.000000000000e+00
          0.000000000000e+00 1.000000000000e+00 0.000000000000e+00
          1.000000000000e-01 1.000000000000e+00 0.000000000000e+00
          2.000000000000e-01 1.000000000000e+00 0.000000000000e+00
          3.000000000000e-01 1.000000000000e+00 0.000000000000e+00
          4.000000000000e-01 1.000000000000e+00 0.000000000000e+00
          5.000000000000e-01 1.000000000000e+00 0.000000000000e+00
          6.000000000000e-01 1.000000000000e+00 0.000000000000e+00
          7.000000000000e-01 1.000000000000e+00 0.000000000000e+00
          8.000000000000e-01 1.000000000000e+00 0.000000000000e+00
          9.000000000000e-01 1.000000000000e+00 0.000000000000e+00
          1.000000000000e+00 1.000000000000e+00 0.000000000000e+00
        </DataArray>
      </Points>
      <Cells>
        <DataArray type="Int64" Name="connectivity" format="ascii">
          0 1 12 11 
          1 2 13 12 
          2 3 14 13 
          3 4 15 14 
          4 5 16 15 
          5 6 17 16 
          6 7 18 17 
          7 8 19 18 
          8 9 20 19 
          9 10 21 20 
          11 12 23 22 
          12 13 24 23 
          13 14 25 24 
          14 15 26 25 
          15 16 27 26 
          16 17 28 27 
          17 18 29 28 
          18 19 30 29 
          19 20 31 30 
          20 21 32 31 
          22 23 34 33 
          23 24 35 34 
          24 25 36 35 
          25 26 37 36 
          26 27 38 37 
          27 28 39 38 
          28 29 40 39 
          29 30 41 40 
          30 31 42 41 
          31 32 43 42 
          33 34 45 44 
          34 35 46 45 
          35 36 47 46 
          36 37 48 47 
          37 38 49 48 
          38 39 50 49 
          39 40 51 50 
          40 41 52 51 
          41 42 53 52 
          42 43 54 53 
          44 45 56 55 
          45 46 57 56 
          46 47 58 57 
          47 48 59 58 
          48 49 60 59 
          49 50 61 60 
          50 51 62 61 
          51 52 63 62 
          52 53 64 63 
          53 54 65 64 
          55 56 67 66 
          56 57 68 67 
          57 58 69 68 
          58 59 70 69 
          59 60 71 70 
          60 61 72 71 
          61 62 73 72 
          62 63 74 73 
          63 64 75 74 
          64 65 76 75 
          66 67 78 77 
          67 68 79 78 
          68 69 80 79 
          69 70 81 80 
          70 71 82 81 
          71 72 83 82 
          72 73 84 83 
          73 74 85 84 
          74 75 86 85 
          75 76 87 86 
          77 78 89 88 
          78 79 90 89 
          79 80 91 90 
          80 81 92 91 
          81 82 93 92 
          82 83 94 93 
          83 84 95 94 
          84 85 96 95 
          85 86 97 96 
          86 87 98 97 
          88 89 100 99 
          89 90 101 100 
          90 91 102 101 
          91 92 103 102 
          92 93 104 103 
          93 94 105 104 
          94 95 106 105 
          95 96 107 106 
          96 97 108 107 
          97 98 109 108 
          99 100 111 110 
          100 101 112 111 
          101 102 113 112 
          102 103 114 113 
          103 104 115 114 
          104 105 116 115 
          105 106 117 116 
          106 107 118 117 
          107 108 119 118 
          108 109 120 119 
        </DataArray>
        <DataArray type="Int64" Name="offsets" format="ascii">
          4 8 12 16 20 24 28 32 36 40 44 48 52 56 60 64 68 72 76 80 84 88 92 96 100 104 108 112 116 120 124 128 132 136 140 144 148 152 156 160 164 168 172 176 180 184 188 192 196 200 204 208 212 216 220 224 228 232 236 240 244 248 252 256 260 264 268 272 276 280 284 288 292 296 300 304 308 312 316 320 324 328 332 336 340 344 348 352 356 360 364 368 372 376 380 384 388 392 396 400 
        </DataArray>
        <DataArray type="UInt8" Name="types" format="ascii">
          9 9 9 9 9 9 9 9 9 9 9 9 9 9 9 9 9 9 9 9 9 9 9 9 9 9 9 9 9 9 9 9 9 9 9 9 9 9 9 9 9 9 9 9 9 9 9 9 9 9 9 9 9 9 9 9 9 9 9 9 9 9 9 9 9 9 9 9 9 9 9 9 9 9 9 9 9 9 9 9 9 9 9 9 9 9 9 9 9 9 9 9 9 9 9 9 9 9 9 9 
        </DataArray>
      </Cells>
      <PointData Scalars="PRESSURE1">
        <DataArray type="Float64" Name="PRESSURE1" format="ascii">
          1.254560218416e-03 1.137639373662e-03 1.014091654797e-03 8.888225986071e-04 7.627150712271e-04 6.361109395040e-04 5.091858532652e-04 3.820471325459e-04 2.547682757132e-04 1.274042809424e-04 0.000000000000e+00 1.264926801643e-03 1.139594039462e-03 1.014908641824e-03 8.892668133661e-04 7.629908963318e-04 6.362931395368e-04 5.093084397791e-04 3.821279800639e-04 2.548175258310e-04 1.274276143767e-04 0.000000000000e+00 1.269776705619e-03 1.142917671789e-03 1.016648128458e-03 8.903104463233e-04 7.636691308553e-04 6.367513940726e-04 5.096203182321e-04 3.823348751795e-04 2.549439302917e-04 1.274875823893e-04 0.000000000000e+00 1.273087276024e-03 1.145705013742e-03 1.018660913210e-03 8.916909313119e-04 7.646269745921e-04 6.374204207288e-04 5.100834639914e-04 3.826448033308e-04 2.551341096181e-04 1.275779870142e-04 0.000000000000e+00 1.275776339416e-03 1.148138294247e-03 1.020644899455e-03 8.932030795694e-04 7.657398930224e-04 6.382225586944e-04 5.106479067978e-04 3.830256919866e-04 2.553688117259e-04 1.276897710001e-04 0.000000000000e+00 1.278233396750e-03 1.150417532816e-03 1.022586959304e-03 8.947503307869e-04 7.669149921605e-04 6.390847426031e-04 5.112603374298e-04 3.834409634123e-04 2.556253181247e-04 1.278120753130e-04 0.000000000000e+00 1.280712858356e-03 1.152712463684e-03 1.024534426232e-03 8.962950592706e-04 7.680841204200e-04 6.399407122505e-04 5.118676534910e-04 3.838525215236e-04 2.558794550781e-04 1.279332332521e-04 0.000000000000e+00 1.283480191431e-03 1.155196502690e-03 1.026530546005e-03 8.977940815854e-04 7.691760114510e-04 6.407232084127e-04 5.124166182483e-04 3.842223925157e-04 2.561071918031e-04 1.280416611844e-04 0.000000000000e+00 1.286973414720e-03 1.158078765753e-03 1.028539201617e-03 8.991307577263e-04 7.700904980776e-04 6.413573760173e-04 5.128540220242e-04 3.845145469414e-04 2.562862971755e-04 1.281267650443e-04 0.000000000000e+00 1.292292293446e-03 1.161519471286e-03 1.030153532894e-03 9.000774477973e-04 7.706986151409e-04 6.417659964009e-04 5.131313510078e-04 3.846982645836e-04 2.563984626418e-04 1.281799607712e-04 0.000000000000e+00 1.304614365054e-03 1.162643304433e-03 1.030712702924e-03 9.003772613930e-04 7.708849542918e-04 6.418890783065e-04 5.132141623287e-04 3.847528797897e-04 2.564317327500e-04 1.281957232974e-04 0.000000000000e+00 
        </DataArray>
        <DataArray type="Float64" Name="TEMPERATURE1" format="ascii">
          5.231500000000e+02 4.708348217815e+02 4.185196619176e+02 3.662045364992e+02 3.138894576443e+02 2.615744324719e+02 2.092594626913e+02 1.569445447139e+02 1.046296701973e+02 5.231482693467e+01 0.000000000000e+00 5.231500000000e+02 4.708348217815e+02 4.185196619176e+02 3.662045364992e+02 3.138894576443e+02 2.615744324719e+02 2.092594626913e+02 1.569445447139e+02 1.046296701973e+02 5.231482693467e+01 0.000000000000e+00 5.231500000000e+02 4.708348217815e+02 4.185196619176e+02 3.662045364992e+02 3.138894576443e+02 2.615744324719e+02 2.092594626913e+02 1.569445447139e+02 1.046296701973e+02 5.231482693467e+01 0.000000000000e+00 5.231500000000e+02 4.708348217815e+02 4.185196619176e+02 3.662045364992e+02 3.138894576443e+02 2.615744324719e+02 2.092594626913e+02 1.569445447139e+02 1.046296701973e+02 5.231482693467e+01 0.000000000000e+00 5.231500000000e+02 4.708348217815e+02 4.185196619176e+02 3.662045364992e+02 3.138894576443e+02 2.615744324719e+02 2.092594626913e+02 1.569445447139e+02 1.046296701973e+02 5.231482693467e+01 0.000000000000e+00 5.231500000000e+02 4.708348217815e+02 4.185196619176e+02 3.662045364992e+02 3.138894576443e+02 2.615744324719e+02 2.092594626913e+02 1.569445447139e+02 1.046296701973e+02 5.231482693467e+01 0.000000000000e+00 5.231500000000e+02 4.708348217815e+02 4.185196619176e+02 3.662045364992e+02 3.138894576443e+02 2.615744324719e+02 2.092594626913e+02 1.569445447139e+02 1.046296701973e+02 5.231482693467e+01 0.000000000000e+00 5.231500000000e+02 4.708348217815e+02 4.185196619176e+02 3.662045364992e+02 3.138894576443e+02 2.615744324719e+02 2.092594626913e+02 1.569445447139e+02 1.046296701973e+02 5.231482693467e+01 0.000000000000e+00 5.231500000000e+02 4.708348217815e+02 4.185196619176e+02 3.662045364992e+02 3.138894576443e+02 2.615744324719e+02 2.092594626913e+02 1.569445447139e+02 1.046296701973e+02 5.231482693467e+01 0.000000000000e+00 5.231500000000e+02 4.708348217815e+02 4.185196619176e+02 3.662045364992e+02 3.138894576443e+02 2.615744324719e+02 2.092594626913e+02 1.569445447139e+02 1.046296701973e+02 5.231482693467e+01 0.000000000000e+00 5.231500000000e+02 4.708348217815e+02 4.185196619176e+02 3.662045364992e+02 3.138894576443e+02 2.615744324719e+02 2.092594626913e+02 1.569445447139e+02 1.046296701973e+02 5.231482693467e+01 0.000000000000e+00 
        </DataArray>
        <DataArray type="Float64" Name="STRESS_XX" format="ascii">
          -2.913324797204e-02 -2.858101420788e-02 -2.675584595984e-02 -2.383203807384e-02 -2.007391828521e-02 -1.579670043706e-02 -1.134066096711e-02 -7.064380816868e-03 -3.361050409030e-03 -6.936230006125e-04 2.665820226127e-04 -2.869133677591e-02 -2.814465548925e-02 -2.632202859013e-02 -2.341161630736e-02 -1.968600729904e-02 -1.546482756428e-02 -1.108612316355e-02 -6.899075248715e-03 -3.281279901813e-03 -6.766897062536e-04 2.606573729518e-04 -2.731783842601e-02 -2.677162199446e-02 -2.495700206858e-02 -2.208834751384e-02 -1.846534541821e-02 -1.442058810967e-02 -1.028447094434e-02 -6.377072511963e-03 -3.028302380963e-03 -6.230170040478e-04 2.417469681589e-04 -2.481250390456e-02 -2.426318145096e-02 -2.246037539018e-02 -1.966915432172e-02 -1.623720851293e-02 -1.251677339484e-02 -8.821141739776e-03 -5.418803404187e-03 -2.558215473581e-03 -5.206915765235e-04 2.065524980493e-04 -2.082199692544e-02 -2.026511323694e-02 -1.848079726808e-02 -1.582382052169e-02 -1.271433794617e-02 -9.521846965685e-03 -6.522083184197e-03 -3.904725277700e-03 -1.804013782275e-03 -3.511072530335e-04 1.499416635988e-04 -1.479619812874e-02 -1.422589030343e-02 -1.248133389792e-02 -1.007238470934e-02 -7.511226552791e-03 -5.153456474275e-03 -3.192042166537e-03 -1.704838374183e-03 -6.896718519071e-04 -9.088063635758e-05 6.605356683147e-05 -5.896334721327e-03 -5.306978451093e-03 -3.673079227208e-03 -1.772607054788e-03 -1.874365775240e-04 8.455603724023e-04 1.304258455319e-03 1.257840987026e-03 8.376463988644e-04 2.827008818466e-04 -4.924702863700e-05 7.205548770105e-03 7.812240939062e-03 9.104024826516e-03 9.862691550067e-03 9.637055023651e-03 8.556434508527e-03 6.892390616286e-03 4.883022289975e-03 2.735765692125e-03 7.777209813417e-04 -1.922887029275e-04 2.681385249530e-02 2.739503243296e-02 2.753835783743e-02 2.558477119665e-02 2.201074220191e-02 1.763667818631e-02 1.306041635750e-02 8.671029085234e-03 4.695908869438e-03 1.341618689903e-03 -3.335240051124e-04 5.753431726522e-02 5.800028737973e-02 5.351761665219e-02 4.535186228860e-02 3.615950116172e-02 2.703423692664e-02 1.862007364967e-02 1.138809080164e-02 5.695359641233e-03 1.634122608377e-03 -3.485927352431e-04 1.219423917010e-01 1.053495475466e-01 8.510436704672e-02 6.676929068351e-02 4.999343132493e-02 3.488538098227e-02 2.167825388006e-02 1.079999811511e-02 2.990504182101e-03 -5.519817413112e-04 -2.297774178969e-04 
        </DataArray>
        <DataArray type="Float64" Name="STRESS_XY" format="ascii">
          8.545058832384e-08 -1.134139504785e-06 -2.709422956775e-06 -4.297100489806e-06 -5.930929709250e-06 -7.451231522961e-06 -8.678964153171e-06 -9.456963127004e-06 -9.726205389500e-06 -1.092770284520e-05 2.454521594896e-05 -3.555587113244e-06 -1.324253426157e-03 -2.523973964212e-03 -3.495007723983e-03 -4.170053893800e-03 -4.514645329621e-03 -4.511770915099e-03 -4.139602120219e-03 -3.348396858274e-03 -2.042731234652e-03 -7.043928142386e-05 -7.827269188617e-06 -2.649396405898e-03 -5.034970338460e-03 -6.945444434884e-03 -8.250342396708e-03 -8.892132205412e-03 -8.850990474606e-03 -8.096870011486e-03 -6.540566958681e-03 -3.993956256288e-03 -1.404229625603e-04 -1.288068199190e-05 -3.975045597985e-03 -7.518073513673e-03 -1.029908595910e-02 -1.213659801257e-02 -1.297562175160e-02 -1.282239753850e-02 -1.166522111759e-02 -9.396646347937e-03 -5.744834730433e-03 -2.085621311744e-04 -1.969148331328e-05 -5.303906389752e-03 -9.952683136213e-03 -1.348268244166e-02 -1.568915434477e-02 -1.656514023890e-02 -1.618558106945e-02 -1.459278520918e-02 -1.169280804041e-02 -7.152356558982e-03 -2.707139405517e-04 -2.993561760236e-05 -6.639240846429e-03 -1.229886878805e-02 -1.637166326138e-02 -1.869527680588e-02 -1.938510310137e-02 -1.863388145201e-02 -1.657023486169e-02 -1.315086099701e-02 -8.027918620816e-03 -3.182494297303e-04 -4.732620116396e-05 -7.978824527205e-03 -1.445840536167e-02 -1.871978390280e-02 -2.079714407935e-02 -2.103612549268e-02 -1.977769585605e-02 -1.723772764482e-02 -1.345015487682e-02 -8.137456040995e-03 -3.351153634867e-04 -8.160804889043e-05 -9.295300913205e-03 -1.616594713373e-02 -1.999988612276e-02 -2.136277399766e-02 -2.092825922146e-02 -1.913781916550e-02 -1.622515483789e-02 -1.228452895186e-02 -7.228962622536e-03 -2.922776226827e-04 -1.654006123864e-04 -1.046320678584e-02 -1.665894586058e-02 -1.907042497193e-02 -1.930526254998e-02 -1.821532703293e-02 -1.615191317370e-02 -1.322786070076e-02 -9.498861161880e-03 -5.131622569730e-03 -1.342069137395e-04 -5.215125746173e-04 -1.090879334116e-02 -1.354937586105e-02 -1.370452355915e-02 -1.299654631755e-02 -1.180127921148e-02 -1.017618910408e-02 -8.045452688014e-03 -5.301720011970e-03 -2.090582328217e-03 2.464039812588e-04 -2.229266309336e-03 -2.309828723855e-03 -1.185600020672e-03 -8.071490214755e-04 -6.148677504914e-04 -4.937503211966e-04 -3.982700953948e-04 -2.912350298094e-04 -1.136712076859e-04 2.548327223172e-04 3.149251794285e-04 
        </DataArray>
        <DataArray type="Float64" Name="STRESS_YY" format="ascii">
          -6.707811912445e-02 -4.691062295996e-02 -3.013449770232e-02 -1.638919301442e-02 -5.123949841767e-03 4.351758849711e-03 1.282727749809e-02 2.117387412544e-02 3.035871547834e-02 4.148810181727e-02 5.587440507474e-02 -6.639662726764e-02 -4.626677503363e-02 -2.958183109810e-02 -1.596949386173e-02 -4.862317863183e-03 4.443004630289e-03 1.273912453214e-02 2.088909579709e-02 2.984141362009e-02 4.067777135558e-02 5.468892475042e-02 -6.437631715843e-02 -4.434572297796e-02 -2.793908323949e-02 -1.473346917553e-02 -4.104663732993e-03 4.691816342251e-03 1.245918148978e-02 2.003489842233e-02 2.830874824201e-02 3.828303378256e-02 5.117576389291e-02 -6.101008449674e-02 -4.115677269980e-02 -2.524162880430e-02 -1.274263792487e-02 -2.925270128222e-03 5.031664794825e-03 1.195006824538e-02 1.862160532004e-02 2.583029238816e-02 3.442908309743e-02 4.548398899707e-02 -5.628921475838e-02 -3.671362161738e-02 -2.155546005718e-02 -1.011136668395e-02 -1.458084626268e-03 5.345853016087e-03 1.114674040504e-02 1.666558057702e-02 2.252616899980e-02 2.934168734648e-02 3.790035657668e-02 -5.019575211229e-02 -3.104065350514e-02 -1.699640846217e-02 -7.028972437216e-03 9.041714199638e-05 5.465892080609e-03 9.959632863397e-03 1.419121489218e-02 1.857105437889e-02 2.336819253320e-02 2.890598306551e-02 -4.269714935432e-02 -2.418787189176e-02 -1.177402288950e-02 -3.798592900667e-03 1.432367383276e-03 5.188033836763e-03 8.296998604451e-03 1.124232295630e-02 1.419506855973e-02 1.699493143876e-02 1.924996906486e-02 -3.373862317087e-02 -1.627782716614e-02 -6.294544717184e-03 -8.954924531739e-04 2.218043360871e-03 4.335969513758e-03 6.129587814339e-03 7.917024111071e-03 9.676753422815e-03 1.083959197040e-02 1.002914653542e-02 -2.321611696715e-02 -7.656955760638e-03 -1.408175958648e-03 1.001450382872e-03 2.150626043025e-03 2.905238554956e-03 3.621625768700e-03 4.455138201959e-03 5.335289225473e-03 5.569937826983e-03 2.750938350950e-03 -1.046491744117e-02 2.208185877054e-04 1.182380559868e-03 1.311800558493e-03 1.299215040816e-03 1.280114805091e-03 1.308806138896e-03 1.421573186909e-03 1.617327529402e-03 1.640253508373e-03 -6.673700226410e-04 2.592964443102e-03 2.110940807615e-03 1.203661777987e-03 8.718721160292e-04 6.536690902371e-04 4.634568116249e-04 2.732480775418e-04 7.206478692397e-05 -1.284168276530e-04 -2.272342444747e-04 -2.306085248577e-04 
        </DataArray>
        <DataArray type="Float64" Name="STRESS_ZZ" format="ascii">
          -1.826695101289e-01 -1.610729287541e-01 -1.401118837024e-01 -1.197305030572e-01 -9.984286098551e-02 -8.033636562294e-02 -6.107629707195e-02 -4.190884815330e-02 -2.266182351722e-02 -3.142215473797e-03 1.684229612921e-02 -1.823324892131e-01 -1.607488667606e-01 -1.398159385102e-01 -1.194784667815e-01 -9.964799809609e-02 -8.020943002693e-02 -6.102638162066e-02 -4.194468998136e-02 -2.279308292253e-02 -3.380234623997e-03 1.648487463701e-02 -1.813143466753e-01 -1.597606410955e-01 -1.389136061962e-01 -1.187106787376e-01 -9.905450329278e-02 -7.982151467696e-02 -6.086986886761e-02 -4.204434837276e-02 -2.317698927970e-02 -4.082554085240e-03 1.542525325832e-02 -1.795528765204e-01 -1.580514238490e-01 -1.373553818621e-01 -1.173876714047e-01 -9.803224413977e-02 -7.914841572674e-02 -6.058360407956e-02 -4.218085557112e-02 -2.377949996364e-02 -5.208041662521e-03 1.370716244854e-02 -1.769394635051e-01 -1.555190580600e-01 -1.350556578013e-01 -1.154446898925e-01 -9.653522731915e-02 -7.815568133161e-02 -6.013488486499e-02 -4.231343955608e-02 -2.454447647276e-02 -6.683385090760e-03 1.141508947208e-02 -1.733036850723e-01 -1.520054007463e-01 -1.318881033118e-01 -1.127945408747e-01 -9.450974337066e-02 -7.680915246483e-02 -5.949200482218e-02 -4.239578319048e-02 -2.539670827992e-02 -8.397365549740e-03 8.691610989702e-03 -1.683841452227e-01 -1.472738927066e-01 -1.276789112388e-01 -1.093354937174e-01 -9.191002130570e-02 -7.509280488398e-02 -5.864190491331e-02 -4.239164696288e-02 -2.625130855044e-02 -1.019726942261e-02 5.760216610868e-03 -1.617660223202e-01 -1.409651134719e-01 -1.222019365710e-01 -1.049739740017e-01 -8.872697103206e-02 -7.303516194005e-02 -5.761568850205e-02 -4.230168222556e-02 -2.703736730353e-02 -1.189536523327e-02 2.951057349747e-03 -1.527267793416e-01 -1.325040146021e-01 -1.152057260401e-01 -9.968826725691e-02 -8.503509007394e-02 -7.074030812435e-02 -5.651766939338e-02 -4.220384595972e-02 -2.775176360954e-02 -1.330709216373e-02 7.252243037514e-04 -1.396852800528e-01 -1.209591058135e-01 -1.066347814401e-01 -9.366503487664e-02 -8.104588568666e-02 -6.840857762721e-02 -5.554361809467e-02 -4.229879694931e-02 -2.856731688682e-02 -1.439824628377e-02 -3.047888273652e-04 -1.164454931568e-01 -1.061872910975e-01 -9.715237195635e-02 -8.737178489091e-02 -7.708937042287e-02 -6.629823180856e-02 -5.493683144396e-02 -4.288007727526e-02 -2.990249683168e-02 -1.561432391453e-02 -1.381157828264e-04 
        </DataArray>
        <DataArray type="Float64" Name="STRAIN_XX" format="ascii">
          9.504625752570e-03 8.201880424290e-03 7.017278526921e-03 5.936571641830e-03 4.938077405257e-03 3.995312606745e-03 3.078872711252e-03 2.157038454160e-03 1.194809763840e-03 1.515795340543e-04 -1.026115635170e-03 9.511118960395e-03 8.208832126323e-03 7.025813471244e-03 5.946995505542e-03 4.950028001722e-03 4.007999200069e-03 3.091539809250e-03 2.169490435831e-03 1.207873520330e-03 1.673623044317e-04 -1.004356306823e-03 9.533117177339e-03 8.232653563396e-03 7.054456445994e-03 5.981382409089e-03 4.988852630331e-03 4.048628787499e-03 3.131477014297e-03 2.207974219954e-03 1.247299665160e-03 2.141618193119e-04 -9.399313417719e-04 9.579165923837e-03 8.282129291306e-03 7.112548019690e-03 6.049241533711e-03 5.063502205471e-03 4.124815953879e-03 3.204342906748e-03 2.275746086524e-03 1.313698563670e-03 2.901692910380e-04 -8.357520445539e-04 9.664414597791e-03 8.372863250954e-03 7.216538985392e-03 6.167006199143e-03 5.188912199280e-03 4.248761175033e-03 3.318887723097e-03 2.377682312471e-03 1.407742928458e-03 3.919981518592e-04 -6.973662929061e-04 9.812368239364e-03 8.529207789322e-03 7.391847630382e-03 6.358990619763e-03 5.385622469678e-03 4.435828799415e-03 3.485235783445e-03 2.518963250532e-03 1.529483207448e-03 5.142109708284e-04 -5.339630785586e-04 1.005876922151e-02 8.788428025341e-03 7.676551505478e-03 6.658654888638e-03 5.678064768887e-03 4.700946420633e-03 3.710952970439e-03 2.702111158804e-03 1.676935306385e-03 6.487600664664e-04 -3.596334633979e-04 1.046014487702e-02 9.210026701629e-03 8.128464276987e-03 7.108936438919e-03 6.089201612973e-03 5.050908351578e-03 3.993357278754e-03 2.920957898581e-03 1.843098709255e-03 7.845243847142e-04 -1.945880889751e-04 1.111442006609e-02 9.898512435501e-03 8.836538525753e-03 7.754997618554e-03 6.626646759933e-03 5.470956295422e-03 4.307214832197e-03 3.149397026592e-03 2.008665439175e-03 9.068249576057e-04 -6.554156197728e-05 1.220883221492e-02 1.107843862625e-02 9.914196072383e-03 8.605807919753e-03 7.255571566804e-03 5.908364710476e-03 4.591085679412e-03 3.323474003630e-03 2.121022832689e-03 9.924799790376e-04 -2.711670487675e-06 1.475734525310e-02 1.309513763035e-02 1.128256003352e-02 9.542066583178e-03 7.867030584388e-03 6.263747458480e-03 4.742838615296e-03 3.323052286071e-03 2.036233396091e-03 9.324307059611e-04 -5.674291694842e-06 
        </DataArray>
        <DataArray type="Float64" Name="STRAIN_XY" format="ascii">