<?xml version="1.0"?>
<!-- Time step: 11 | Time: 1.100000000000e+01 -->
<VTKFile type="UnstructuredGrid" version="0.1" byte_order="LittleEndian">
  <UnstructuredGrid>
    <Piece NumberOfPoints="121" NumberOfCells="100">
      <Points>
        <DataArray type="Float64" NumberOfComponents="3" format="ascii">
          0.000000000000e+00 0.000000000000e+00 0.000000000000e+00
          1.000000000000e-01 0.000000000000e+00 0.000000000000e+00
          2.000000000000e-01 0.000000000000e+00 0.000000000000e+00
          3.000000000000e-01 0.000000000000e+00 0.000000000000e+00
          4.000000000000e-01 0.000000000000e+00 0.000000000000e+00
          5.000000000000e-01 0.000000000000e+00 0.000000000000e+00
          6.000000000000e-01 0.000000000000e+00 0.000000000000e+00
          7.000000000000e-01 0.000000000000e+00 0.000000000000e+00
          8.000000000000e-01 0.000000000000e+00 0.000000000000e+00
          9.000000000000e-01 0.000000000000e+00 0.000000000000e+00
          1.000000000000e+00 0.000000000000e+00 0.000000000000e+00
          0.000000000000e+00 1.000000000000e-01 0.000000000000e+00
          1.000000000000e-01 1.000000000000e-01 0.000000000000e+00
          2.000000000000e-01 1.000000000000e-01 0.000000000000e+00
          3.000000000000e-01 1.000000000000e-01 0.000000000000e+00
          4.000000000000e-01 1.000000000000e-01 0.000000000000e+00
          5.000000000000e-01 1.000000000000e-01 0.000000000000e+00
          6.000000000000e-01 1.000000000000e-01 0.000000000000e+00
          7.000000000000e-01 1.000000000000e-01 0.000000000000e+00
          8.000000000000e-01 1.000000000000e-01 0.000000000000e+00
          9.000000000000e-01 1.000000000000e-01 0.000000000000e+00
          1.000000000000e+00 1.000000000000e-01 0.000000000000e+00
          0.000000000000e+00 2.000000000000e-01 0.000000000000e+00
          1.000000000000e-01 2.000000000000e-01 0.000000000000e+00
          2.000000000000e-01 2.000000000000e-01 0.000000000000e+00
          3.000000000000e-01 2.000000000000e-01 0.000000000000e+00
          4.000000000000e-01 2.000000000000e-01 0.000000000000e+00
          5.000000000000e-01 2.000000000000e-01 0.000000000000e+00
          6.000000000000e-01 2.000000000000e-01 0.000000000000e+00
          7.000000000000e-01 2.000000000000e-01 0.000000000000e+00
          8.000000000000e-01 2.000000000000e-01 0.000000000000e+00
          9.000000000000e-01 2.000000000000e-01 0.000000000000e+00
          1.000000000000e+00 2.000000000000e-01 0.000000000000e+00
          0.000000000000e+00 3.000000000000e-01 0.000000000000e+00
          1.000000000000e-01 3.000000000000e-01 0.000000000000e+00
          2.000000000000e-01 3.000000000000e-01 0.000000000000e+00
          3.000000000000e-01 3.000000000000e-01 0.000000000000e+00
          4.000000000000e-01 3.000000000000e-01 0.000000000000e+00
          5.000000000000e-01 3.000000000000e-01 0.000000000000e+00
          6.000000000000e-01 3.000000000000e-01 0.000000000000e+00
          7.000000000000e-01 3.000000000000e-01 0.000000000000e+00
          8.000000000000e-01 3.000000000000e-01 0.000000000000e+00
          9.000000000000e-01 3.000000000000e-01 0.000000000000e+00
          1.000000000000e+00 3.000000000000e-01 0.000000000000e+00
          0.000000000000e+00 4.000000000000e-01 0.000000000000e+00
          1.000000000000e-01 4.000000000000e-01 0.000000000000e+00
          2.000000000000e-01 4.000000000000e-01 0.000000000000e+00
          3.000000000000e-01 4.000000000000e-01 0.000000000000e+00
          4.000000000000e-01 4.000000000000e-01 0.000000000000e+00
          5.000000000000e-01 4.000000000000e-01 0.000000000000e+00
          6.000000000000e-01 4.000000000000e-01 0.000000000000e+00
          7.000000000000e-01 4.000000000000e-01 0.000000000000e+00
          8.000000000000e-01 4.000000000000e-01 0.000000000000e+00
          9.000000000000e-01 4.000000000000e-01 0.000000000000e+00
          1.000000000000e+00 4.000000000000e-01 0.000000000000e+00
          0.000000000000e+00 5.000000000000e-01 0.000000000000e+00
          1.000000000000e-01 5.000000000000e-01 0.000000000000e+00
          2.000000000000e-01 5.000000000000e-01 0.000000000000e+00
          3.000000000000e-01 5.000000000000e-01 0.000000000000e+00
          4.000000000000e-01 5.000000000000e-01 0.000000000000e+00
          5.000000000000e-01 5.000000000000e-01 0.000000000000e+00
          6.000000000000e-01 5.000000000000e-01 0.000000000000e+00
          7.000000000000e-01 5.000000000000e-01 0.000000000000e+00
          8.000000000000e-01 5.000000000000e-01 0.000000000000e+00
          9.000000000000e-01 5.000000000000e-01 0.000000000000e+00
          1.000000000000e+00 5.000000000000e-01 0.000000000000e+00
          0.000000000000e+00 6.000000000000e-01 0.000000000000e+00
          1.000000000000e-01 6.000000000000e-01 0.000000000000e+00
          2.000000000000e-01 6.000000000000e-01 0.000000000000e+00
          3.000000000000e-01 6.000000000000e-01 0.000000000000e+00
          4.000000000000e-01 6.000000000000e-01 0.000000000000e+00
          5.000000000000e-01 6.000000000000e-01 0.000000000000e+00
          6.000000000000e-01 6.000000000000e-01 0.000000000000e+00
          7.000000000000e-01 6.000000000000e-01 0.000000000000e+00
          8.000000000000e-01 6.000000000000e-01 0.000000000000e+00
          9.000000000000e-01 6.000000000000e-01 0.000000000000e+00
          1.000000000000e+00 6.000000000000e-01 0.000000000000e+00
          0.000000000000e+00 7.000000000000e-01 0.000000000000e+00
          1.000000000000e-01 7.000000000000e-01 0.000000000000e+00
          2.000000000000e-01 7.000000000000e-01 0.000000000000e+00
          3.000000000000e-01 7.000000000000e-01 0.000000000000e+00
          4.000000000000e-01 7.000000000000e-01 0.000000000000e+00
          5.000000000000e-01 7.000000000000e-01 0.000000000000e+00
          6.000000000000e-01 7.000000000000e-01 0.000000000000e+00
          7.000000000000e-01 7.000000000000e-01 0.000000000000e+00
          8.000000000000e-01 7.000000000000e-01 0.000000000000e+00
          9.000000000000e-01 7.000000000000e-01 0.000000000000e+00
          1.000000000000e+00 7.000000000000e-01 0.000000000000e+00
          0.000000000000e+00 8.000000000000e-01 0.000000000000e+00
          1.000000000000e-01 8.000000000000e-01 0.000000000000e+00
          2.000000000000e-01 8.000000000000e-01 0.000000000000e+00
          3.000000000000e-01 8.000000000000e-01 0.000000000000e+00
          4.000000000000e-01 8.000000000000e-01 0.000000000000e+00
          5.000000000000e-01 8.000000000000e-01 0.000000000000e+00
          6.000000000000e-01 8.000000000000e-01 0.000000000000e+00
          7.000000000000e-01 8.000000000000e-01 0.000000000000e+00
          8.000000000000e-01 8.000000000000e-01 0.000000000000e+00
          9.000000000000e-01 8.000000000000e-01 0.000000000000e+00
          1.000000000000e+00 8.000000000000e-01 0.000000000000e+00
          0.000000000000e+00 9.000000000000e-01 0.000000000000e+00
          1.000000000000e-01 9.000000000000e-01 0.000000000000e+00
          2.000000000000e-01 9.000000000000e-01 0.000000000000e+00
          3.000000000000e-01 9.000000000000e-01 0.000000000000e+00
          4.000000000000e-01 9.000000000000e-01 0.000000000000e+00
          5.000000000000e-01 9.000000000000e-01 0.000000000000e+00
          6.000000000000e-01 9.000000000000e-01 0.000000000000e+00
          7.000000000000e-01 9.000000000000e-01 0.000000000000e+00
          8.000000000000e-01 9.000000000000e-01 0.000000000000e+00
          9.000000000000e-01 9.000000000000e-01 0.000000000000e+00
          1.000000000000e+00 9.000000000000e-01 0.000000000000e+00
          0.000000000000e+00 1.000000000000e+00 0.000000000000e+00
          1.000000000000e-01 1.000000000000e+00 0.000000000000e+00
          2.000000000000e-01 1.000000000000e+00 0.000000000000e+00
          3.000000000000e-01 1.000000000000e+00 0.000000000000e+00
          4.000000000000e-01 1.000000000000e+00 0.000000000000e+00
          5.000000000000e-01 1.000000000000e+00 0.000000000000e+00
          6.000000000000e-01 1.000000000000e+00 0.000000000000e+00
          7.000000000000e-01 1.000000000000e+00 0.000000000000e+00
          8.000000000000e-01 1.000000000000e+00 0.000000000000e+00
          9.000000000000e-01 1.000000000000e+00 0.000000000000e+00
          1.000000000000e+00 1.000000000000e+00 0.000000000000e+00
        </DataArray>
      </Points>
      <Cells>
        <DataArray type="Int64" Name="connectivity" format="ascii">
          0 1 12 11 
          1 2 13 12 
          2 3 14 13 
          3 4 15 14 
          4 5 16 15 
          5 6 17 16 
          6 7 18 17 
          7 8 19 18 
          8 9 20 19 
          9 10 21 20 
          11 12 23 22 
          12 13 24 23 
          13 14 25 24 
          14 15 26 25 
          15 16 27 26 
          16 17 28 27 
          17 18 29 28 
          18 19 30 29 
          19 20 31 30 
          20 21 32 31 
          22 23 34 33 
          23 24 35 34 
          24 25 36 35 
          25 26 37 36 
          26 27 38 37 
          27 28 39 38 
          28 29 40 39 
          29 30 41 40 
          30 31 42 41 
          31 32 43 42 
          33 34 45 44 
          34 35 46 45 
          35 36 47 46 
          36 37 48 47 
          37 38 49 48 
          38 39 50 49 
          39 40 51 50 
          40 41 52 51 
          41 42 53 52 
          42 43 54 53 
          44 45 56 55 
          45 46 57 56 
          46 47 58 57 
          47 48 59 58 
          48 49 60 59 
          49 50 61 60 
          50 51 62 61 
          51 52 63 62 
          52 53 64 63 
          53 54 65 64 
          55 56 67 66 
          56 57 68 67 
          57 58 69 68 
          58 59 70 69 
          59 60 71 70 
          60 61 72 71 
          61 62 73 72 
          62 63 74 73 
          63 64 75 74 
          64 65 76 75 
          66 67 78 77 
          67 68 79 78 
          68 69 80 79 
          69 70 81 80 
          70 71 82 81 
          71 72 83 82 
          72 73 84 83 
          73 74 85 84 
          74 75 86 85 
          75 76 87 86 
          77 78 89 88 
          78 79 90 89 
          79 80 91 90 
          80 81 92 91 
          81 82 93 92 
          82 83 94 93 
          83 84 95 94 
          84 85 96 95 
          85 86 97 96 
          86 87 98 97 
          88 89 100 99 
          89 90 101 100 
          90 91 102 101 
          91 92 103 102 
          92 93 104 103 
          93 94 105 104 
          94 95 106 105 
          95 96 107 106 
          96 97 108 107 
          97 98 109 108 
          99 100 111 110 
          100 101 112 111 
          101 102 113 112 
          102 103 114 113 
          103 104 115 114 
          104 105 116 115 
          105 106 117 116 
          106 107 118 117 
          107 108 119 118 
          108 109 120 119 
        </DataArray>
        <DataArray type="Int64" Name="offsets" format="ascii">
          4 8 12 16 20 24 28 32 36 40 44 48 52 56 60 64 68 72 76 80 84 88 92 96 100 104 108 112 116 120 124 128 132 136 140 144 148 152 156 160 164 168 172 176 180 184 188 192 196 200 204 208 212 216 220 224 228 232 236 240 244 248 252 256 260 264 268 272 276 280 284 288 292 296 300 304 308 312 316 320 324 328 332 336 340 344 348 352 356 360 364 368 372 376 380 384 388 392 396 400 
        </DataArray>
        <DataArray type="UInt8" Name="types" format="ascii">
          9 9 9 9 9 9 9 9 9 9 9 9 9 9 9 9 9 9 9 9 9 9 9 9 9 9 9 9 9 9 9 9 9 9 9 9 9 9 9 9 9 9 9 9 9 9 9 9 9 9 9 9 9 9 9 9 9 9 9 9 9 9 9 9 9 9 9 9 9 9 9 9 9 9 9 9 9 9 9 9 9 9 9 9 9 9 9 9 9 9 9 9 9 9 9 9 9 9 9 9 
        </DataArray>
      </Cells>
      <PointData Scalars="PRESSURE1">
        <DataArray type="Float64" Name="PRESSURE1" format="ascii">
          1.254560208716e-03 1.137639363700e-03 1.014091644474e-03 8.888225881041e-04 7.627150609309e-04 6.361109299250e-04 5.091858449473e-04 3.820471259798e-04 2.547682712576e-04 1.274042787579e-04 0.000000000000e+00 1.264926791961e-03 1.139594029508e-03 1.014908631510e-03 8.892668028732e-04 7.629908860469e-04 6.362931299689e-04 5.093084314708e-04 3.821279735046e-04 2.548175213790e-04 1.274276121932e-04 0.000000000000e+00 1.269776695957e-03 1.142917661857e-03 1.016648118168e-03 8.903104358591e-04 7.636691206025e-04 6.367513845369e-04 5.096203099517e-04 3.823348686404e-04 2.549439258504e-04 1.274875802087e-04 0.000000000000e+00 1.273087266385e-03 1.145705003836e-03 1.018660902956e-03 8.916909208942e-04 7.646269643935e-04 6.374204112488e-04 5.100834557603e-04 3.826447968275e-04 2.551341051962e-04 1.275779848390e-04 0.000000000000e+00 1.275776329794e-03 1.148138284369e-03 1.020644889245e-03 8.932030692151e-04 7.657398829022e-04 6.382225492973e-04 5.106478986414e-04 3.830256855386e-04 2.553688073344e-04 1.276897688336e-04 0.000000000000e+00 1.278233387134e-03 1.150417522957e-03 1.022586949141e-03 8.947503205121e-04 7.669149821451e-04 6.390847333207e-04 5.112603293788e-04 3.834409570435e-04 2.556253137773e-04 1.278120731593e-04 0.000000000000e+00 1.280712848718e-03 1.152712453825e-03 1.024534416113e-03 8.962950490892e-04 7.680841105378e-04 6.399407031186e-04 5.118676455807e-04 3.838525152621e-04 2.558794507914e-04 1.279332311163e-04 0.000000000000e+00 1.283480181727e-03 1.155196492799e-03 1.026530535918e-03 8.977940715085e-04 7.691760017296e-04 6.407231994672e-04 5.124166105143e-04 3.842223863897e-04 2.561071875941e-04 1.280416590720e-04 0.000000000000e+00 1.286973404896e-03 1.158078755790e-03 1.028539191546e-03 8.991307477592e-04 7.700904885360e-04 6.413573672826e-04 5.128540144900e-04 3.845145409692e-04 2.562862930549e-04 1.281267629585e-04 0.000000000000e+00 1.292292283461e-03 1.161519461224e-03 1.030153522827e-03 9.000774379312e-04 7.706986057677e-04 6.417659878627e-04 5.131313436587e-04 3.846982587527e-04 2.563984586013e-04 1.281799587087e-04 0.000000000000e+00 1.304614354961e-03 1.162643294317e-03 1.030712692859e-03 9.003772515745e-04 7.708849449953e-04 6.418890698562e-04 5.132141550610e-04 3.847528740200e-04 2.564317287425e-04 1.281957212422e-04 0.000000000000e+00 
        </DataArray>
        <DataArray type="Float64" Name="TEMPERATURE1" format="ascii">
          5.231500000000e+02 4.708349999977e+02 4.185199999956e+02 3.662049999939e+02 3.138899999929e+02 2.615749999925e+02 2.092599999929e+02 1.569449999939e+02 1.046299999956e+02 5.231499999768e+01 0.000000000000e+00 5.231500000000e+02 4.708349999977e+02 4.185199999956e+02 3.662049999939e+02 3.138899999929e+02 2.615749999925e+02 2.092599999929e+02 1.569449999939e+02 1.046299999956e+02 5.231499999768e+01 0.000000000000e+00 5.231500000000e+02 4.708349999977e+02 4.185199999956e+02 3.662049999939e+02 3.138899999929e+02 2.615749999925e+02 2.092599999929e+02 1.569449999939e+02 1.046299999956e+02 5.231499999768e+01 0.000000000000e+00 5.231500000000e+02 4.708349999977e+02 4.185199999956e+02 3.662049999939e+02 3.138899999929e+02 2.615749999925e+02 2.092599999929e+02 1.569449999939e+02 1.046299999956e+02 5.231499999768e+01 0.000000000000e+00 5.231500000000e+02 4.708349999977e+02 4.185199999956e+02 3.662049999939e+02 3.138899999929e+02 2.615749999925e+02 2.092599999929e+02 1.569449999939e+02 1.046299999956e+02 5.231499999768e+01 0.000000000000e+00 5.231500000000e+02 4.708349999977e+02 4.185199999956e+02 3.662049999939e+02 3.138899999929e+02 2.615749999925e+02 2.092599999929e+02 1.569449999939e+02 1.046299999956e+02 5.231499999768e+01 0.000000000000e+00 5.231500000000e+02 4.708349999977e+02 4.185199999956e+02 3.662049999939e+02 3.138899999929e+02 2.615749999925e+02 2.092599999929e+02 1.569449999939e+02 1.046299999956e+02 5.231499999768e+01 0.000000000000e+00 5.231500000000e+02 4.708349999977e+02 4.185199999956e+02 3.662049999939e+02 3.138899999929e+02 2.615749999925e+02 2.092599999929e+02 1.569449999939e+02 1.046299999956e+02 5.231499999768e+01 0.000000000000e+00 5.231500000000e+02 4.708349999977e+02 4.185199999956e+02 3.662049999939e+02 3.138899999929e+02 2.615749999925e+02 2.092599999929e+02 1.569449999939e+02 1.046299999956e+02 5.231499999768e+01 0.000000000000e+00 5.231500000000e+02 4.708349999977e+02 4.185199999956e+02 3.662049999939e+02 3.138899999929e+02 2.615749999925e+02 2.092599999929e+02 1.569449999939e+02 1.046299999956e+02 5.231499999768e+01 0.000000000000e+00 5.231500000000e+02 4.708349999977e+02 4.185199999956e+02 3.662049999939e+02 3.138899999929e+02 2.615749999925e+02 2.092599999929e+02 1.569449999939e+02 1.046299999956e+02 5.231499999768e+01 0.000000000000e+00 
        </DataArray>
        <DataArray type="Float64" Name="STRESS_XX" format="ascii">
          -2.913325245280e-02 -2.858101908996e-02 -2.675585187688e-02 -2.383204521494e-02 -2.007392627948e-02 -1.579670843868e-02 -1.134066791577e-02 -7.064385799626e-03 -3.361053023296e-03 -6.936236071124e-04 2.665822204515e-04 -2.869134081954e-02 -2.814465999316e-02 -2.632203428657e-02 -2.341162343444e-02 -1.968601547468e-02 -1.546483588061e-02 -1.108613046923e-02 -6.899080537338e-03 -3.281282702329e-03 -6.766903637984e-04 2.606575853214e-04 -2.731784109974e-02 -2.677162531182e-02 -2.495700706637e-02 -2.208835457738e-02 -1.846535412623e-02 -1.442059736290e-02 -1.028447931710e-02 -6.377078718770e-03 -3.028305744869e-03 -6.230178181334e-04 2.417472244729e-04 -2.481250411625e-02 -2.426318263255e-02 -2.246037911187e-02 -1.966916120886e-02 -1.623721805618e-02 -1.251678415976e-02 -8.821151845889e-03 -5.418811114806e-03 -2.558219774683e-03 -5.206926586267e-04 2.065528273744e-04 -2.082199338449e-02 -2.026511116285e-02 -1.848079901648e-02 -1.582382701858e-02 -1.271434849650e-02 -9.521859640015e-03 -6.522095497722e-03 -3.904734926112e-03 -1.804019322627e-03 -3.511087076202e-04 1.499420889956e-04 -1.479618946237e-02 -1.422588380041e-02 -1.248133293854e-02 -1.007239046925e-02 -7.511237958637e-03 -5.153470953956e-03 -3.192056594197e-03 -1.704849915116e-03 -6.896786629961e-04 -9.088251144510e-05 6.605408883838e-05 -5.896319955944e-03 -5.306966754683e-03 -3.673075092545e-03 -1.772611548263e-03 -1.874479170946e-04 8.455454054161e-04 1.304243359668e-03 1.257828763067e-03 8.376389980106e-04 2.826987212016e-04 -4.924646930463e-05 7.205568865843e-03 7.812256920135e-03 9.104031602540e-03 9.862689261862e-03 9.637046498204e-03 8.556423036207e-03 6.892379106363e-03 4.883012976857e-03 2.735759927664e-03 7.777191343906e-04 -1.922882970785e-04 2.681387190946e-02 2.739504689636e-02 2.753836436983e-02 2.558477357913e-02 2.201074353869e-02 1.763667963004e-02 1.306041793940e-02 8.671030487691e-03 4.695909772154e-03 1.341618790350e-03 -3.335241755670e-04 5.753431540595e-02 5.800028078724e-02 5.351761735174e-02 4.535187770712e-02 3.615952897279e-02 2.703427104051e-02 1.862010695519e-02 1.138811722003e-02 5.695375802060e-03 1.634128144925e-03 -3.485939902171e-04 1.219422656285e-01 1.053494794323e-01 8.510436767139e-02 6.676934527143e-02 4.999352165294e-02 3.488548631162e-02 2.167835354798e-02 1.080007447252e-02 2.990546123634e-03 -5.519730801621e-04 -2.297803439062e-04 
        </DataArray>
        <DataArray type="Float64" Name="STRESS_XY" format="ascii">
          8.545055473226e-08 -1.134142635908e-06 -2.709428348665e-06 -4.297106804908e-06 -5.930935667442e-06 -7.451236252142e-06 -8.678967288156e-06 -9.456964779463e-06 -9.726206192372e-06 -1.092770500381e-05 2.454523666000e-05 -3.555579407525e-06 -1.324252638131e-03 -2.523972718830e-03 -3.495006562036e-03 -4.170053371995e-03 -4.514645821003e-03 -4.511772464106e-03 -4.139604389032e-03 -3.348399179972e-03 -2.042732776237e-03 -7.043932040577e-05 -7.827251714606e-06 -2.649394600919e-03 -5.034967464687e-03 -6.945441691261e-03 -8.250341012528e-03 -8.892133007683e-03 -8.850993582917e-03 -8.096874727556e-03 -6.540571871904e-03 -3.993959569050e-03 -1.404230561327e-04 -1.288065006293e-05 -3.975042295012e-03 -7.518068214544e-03 -1.029908077184e-02 -1.213659507522e-02 -1.297562249985e-02 -1.282240221947e-02 -1.166522862595e-02 -9.396654384682e-03 -5.744840278998e-03 -2.085623145498e-04 -1.969142819864e-05 -5.303900813764e-03 -9.952674154469e-03 -1.348267348908e-02 -1.568914882411e-02 -1.656514039655e-02 -1.618558732803e-02 -1.459279598185e-02 -1.169281995185e-02 -7.152365031352e-03 -2.707142762320e-04 -2.993552332411e-05 -6.639231880867e-03 -1.229885438925e-02 -1.637164882376e-02 -1.869526743813e-02 -1.938510203548e-02 -1.863388927382e-02 -1.657024939405e-02 -1.315087761060e-02 -8.027930842538e-03 -3.182500170215e-04 -4.732603674279e-05 -7.978810694806e-03 -1.445838346420e-02 -1.871976217537e-02 -2.079712971244e-02 -2.103612268215e-02 -1.977770519358e-02 -1.723774622380e-02 -1.345017673828e-02 -8.137472697866e-03 -3.351163424513e-04 -8.160774636864e-05 -9.295280480603e-03 -1.616591590881e-02 -1.999985616649e-02 -2.136275441384e-02 -2.092825465546e-02 -1.913782986714e-02 -1.622517707751e-02 -1.228455558921e-02 -7.228983575665e-03 -2.922791458661e-04 -1.653999854221e-04 -1.046317830497e-02 -1.665890577875e-02 -1.907038909646e-02 -1.930524001915e-02 -1.821532171306e-02 -1.615192463033e-02 -1.322788464820e-02 -9.498889841248e-03 -5.131645437072e-03 -1.342089749257e-04 -5.215106454413e-04 -1.090875793627e-02 -1.354933648612e-02 -1.370449205472e-02 -1.299652772517e-02 -1.180127531696e-02 -1.017619902685e-02 -8.045472885753e-03 -5.301743981804e-03 -2.090600398934e-03 2.464024827528e-04 -2.229258532715e-03 -2.309820029038e-03 -1.185595193788e-03 -8.071460275166e-04 -6.148662537491e-04 -4.937502103395e-04 -3.982712423963e-04 -2.912372068089e-04 -1.136739379768e-04 2.548309731600e-04 3.149266688674e-04 
        </DataArray>
        <DataArray type="Float64" Name="STRESS_YY" format="ascii">
          -6.707796554063e-02 -4.691054387876e-02 -3.013448492989e-02 -1.638923215180e-02 -5.124022080485e-03 4.351674773321e-03 1.282720341732e-02 2.117383074410e-02 3.035872089541e-02 4.148817025982e-02 5.587454578814e-02 -6.639647408606e-02 -4.626669627019e-02 -2.958181842077e-02 -1.596953281366e-02 -4.862389678452e-03 4.442921084969e-03 1.273905090893e-02 2.088905261811e-02 2.984141885683e-02 4.067783921539e-02 5.468906461121e-02 -6.437616530197e-02 -4.434564526679e-02 -2.793907089660e-02 -1.473350755984e-02 -4.104734215651e-03 4.691734481412e-03 1.245910933296e-02 2.003485591911e-02 2.830875295352e-02 3.828309983163e-02 5.117590104567e-02 -6.100993525655e-02 -4.115669708125e-02 -2.524161718280e-02 -1.274267531976e-02 -2.925338176891e-03 5.031586047006e-03 1.194999884344e-02 1.862156417252e-02 2.583029628215e-02 3.442914592483e-02 4.548412112326e-02 -5.628907008193e-02 -3.671354966786e-02 -2.155544978459e-02 -1.011140257816e-02 -1.458148802484e-03 5.345779266052e-03 1.114667549843e-02 1.666554180274e-02 2.252617188720e-02 2.934174525903e-02 3.790048055545e-02 -5.019561494939e-02 -3.104058759227e-02 -1.699640046655e-02 -7.029006129834e-03 9.035877580040e-05 5.465825819723e-03 9.959574760527e-03 1.419117993697e-02 1.857105623854e-02 2.336824351791e-02 2.890609463780e-02 -4.269702406910e-02 -2.418781542028e-02 -1.177401834410e-02 -3.798623300971e-03 1.432317415096e-03 5.187978200319e-03 8.296950143391e-03 1.124229366187e-02 1.419506959380e-02 1.699497327109e-02 1.925006263509e-02 -3.373851600258e-02 -1.627778468242e-02 -6.294544656435e-03 -8.955177311729e-04 2.218005033913e-03 4.335928011175e-03 6.129551998645e-03 7.917002418002e-03 9.676754021454e-03 1.083962260677e-02 1.002921547866e-02 -2.321603650501e-02 -7.656932464283e-03 -1.408180031759e-03 1.001433142605e-03 2.150602656938e-03 2.905214099347e-03 3.621604842262e-03 4.455125456124e-03 5.335289652816e-03 5.569956186691e-03 2.750976729199e-03 -1.046487650769e-02 2.208207280117e-04 1.182376825495e-03 1.311794335795e-03 1.299207674120e-03 1.280107385829e-03 1.308799771089e-03 1.421569119440e-03 1.617327416454e-03 1.640259797433e-03 -6.673617584256e-04 2.592960308998e-03 2.110938022836e-03 1.203662062168e-03 8.718734358916e-04 6.536708534265e-04 4.634586397300e-04 2.732496271259e-04 7.206569770809e-05 -1.284169567831e-04 -2.272355973702e-04 -2.306113049012e-04 
        </DataArray>
        <DataArray type="Float64" Name="STRESS_ZZ" format="ascii">
          -1.826694653980e-01 -1.610729588899e-01 -1.401119810407e-01 -1.197306532082e-01 -9.984304450589e-02 -8.033656009740e-02 -6.107647934743e-02 -4.190899651487e-02 -2.266191963707e-02 -3.142246003505e-03 1.684233840258e-02 -1.823324444717e-01 -1.607488968783e-01 -1.398160358109e-01 -1.194786168726e-01 -9.964818154384e-02 -8.020962443648e-02 -6.102656386599e-02 -4.194483837398e-02 -2.279317915235e-02 -3.380265343840e-03 1.648491665896e-02 -1.813143019205e-01 -1.597606711729e-01 -1.389137033876e-01 -1.187108286394e-01 -9.905468650046e-02 -7.982170886224e-02 -6.087005099314e-02 -4.204449683811e-02 -2.317708583611e-02 -4.082585395268e-03 1.542529448104e-02 -1.795528318118e-01 -1.580514539135e-01 -1.373554788871e-01 -1.173878209568e-01 -9.803242686782e-02 -7.914860943162e-02 -6.058378589863e-02 -4.218100408090e-02 -2.377959704646e-02 -5.208074019457e-03 1.370720218519e-02 -1.769394190399e-01 -1.555190882485e-01 -1.350557546390e-01 -1.154448388772e-01 -9.653540918759e-02 -7.815587410998e-02 -6.013506599769e-02 -4.231358793522e-02 -2.454457422933e-02 -6.683419033895e-03 1.141512679333e-02 -1.733036413235e-01 -1.520054314171e-01 -1.318882000202e-01 -1.127946889779e-01 -9.450992375275e-02 -7.680934353806e-02 -5.949218454800e-02 -4.239593099166e-02 -2.539680672604e-02 -8.397401697378e-03 8.691644617993e-03 -1.683841032075e-01 -1.472739246518e-01 -1.276790080297e-01 -1.093356404530e-01 -9.191019914850e-02 -7.509299291607e-02 -5.864208194698e-02 -4.239179327073e-02 -2.625140742116e-02 -1.019730840163e-02 5.760244849736e-03 -1.617659841410e-01 -1.409651483280e-01 -1.222020339149e-01 -1.049741185390e-01 -8.872714453826e-02 -7.303534468358e-02 -5.761586066640e-02 -4.230182537976e-02 -2.703746581397e-02 -1.189540747697e-02 2.951078154476e-03 -1.527267493787e-01 -1.325040556697e-01 -1.152058246973e-01 -9.968840798169e-02 -8.503525613921e-02 -7.074048187898e-02 -5.651783316340e-02 -4.220398321507e-02 -2.775186017121e-02 -1.330713750621e-02 7.252357660897e-04 -1.396852683305e-01 -1.209591595447e-01 -1.066348817455e-01 -9.366516838534e-02 -8.104603900382e-02 -6.840873646989e-02 -5.554376798002e-02 -4.229892409637e-02 -2.856740903315e-02 -1.439829361661e-02 -3.047867245928e-04 -1.164455322187e-01 -1.061873647628e-01 -9.715247107864e-02 -8.737190438602e-02 -7.708950224599e-02 -6.629836651238e-02 -5.493695904537e-02 -4.288018794715e-02 -2.990258124865e-02 -1.561437260258e-02 -1.381174946422e-04 
        </DataArray>
        <DataArray type="Float64" Name="STRAIN_XX" format="ascii">
          9.504622706133e-03 8.201881987617e-03 7.017284186334e-03 5.936580494823e-03 4.938088271159e-03 3.995324150302e-03 3.078883564817e-03 2.157047329991e-03 1.194815552281e-03 1.515813864434e-04 -1.026118239846e-03 9.511115940371e-03 8.208833711939e-03 7.025819141982e-03 5.947004355698e-03 4.950038851900e-03 4.008010720125e-03 3.091550638847e-03 2.169499294649e-03 1.207879304049e-03 1.673641654312e-04 -1.004358895035e-03 9.533114241286e-03 8.232655219972e-03 7.054462153218e-03 5.981391251457e-03 4.988863432691e-03 4.048640235673e-03 3.131487770422e-03 2.207983026435e-03 1.247305434219e-03 2.141637071559e-04 -9.399338777877e-04 9.579163143060e-03 8.282131079294e-03 7.112553795610e-03 6.049250365348e-03 5.063512926435e-03 4.124827278734e-03 3.204353536598e-03 2.275754802663e-03 1.313704307301e-03 2.901712270990e-04 -8.357544840553e-04 9.664412064384e-03 8.372865248161e-03 7.216544871872e-03 6.167015019821e-03 5.188922804687e-03 4.248772324331e-03 3.318898173807e-03 2.377690900564e-03 1.407748637082e-03 3.920001630551e-04 -6.973685769352e-04 9.812366067596e-03 8.529210090558e-03 7.391853676486e-03 6.358999431490e-03 5.385632930112e-03 4.435839731397e-03 3.485246016188e-03 2.518971685691e-03 1.529488880093e-03 5.142130924625e-04 -5.339651279953e-04 1.005876753462e-02 8.788430726965e-03 7.676557753252e-03 6.658663694102e-03 5.678075076230e-03 4.700957134187e-03 3.710962995174e-03 2.702119459235e-03 1.676940968806e-03 6.487623456991e-04 -3.596351768930e-04 1.046014375757e-02 9.210029848694e-03 8.128470722506e-03 7.108945244816e-03 6.089211826067e-03 5.050918954082e-03 3.993367224028e-03 2.920966183981e-03 1.843104450672e-03 7.845268854651e-04 -1.945893517629e-04 1.111441941307e-02 9.898515873137e-03 8.836545037488e-03 7.755006477575e-03 6.626657122918e-03 5.470967141034e-03 4.307225068268e-03 3.149405610171e-03 2.008671472684e-03 9.068277707391e-04 -6.554228210256e-05 1.220883137416e-02 1.107844154436e-02 9.914202325069e-03 8.605817139057e-03 7.255582779505e-03 5.908376655406e-03 4.591097019798e-03 3.323483510063e-03 2.121029537418e-03 9.924832519045e-04 -2.711878348171e-06 1.475733986673e-02 1.309513797398e-02 1.128256620833e-02 9.542077359747e-03 7.867044336600e-03 6.263762317677e-03 4.742852684350e-03 3.323063864074e-03 2.036241218284e-03 9.324342561495e-04 -5.674366859197e-06 
        </DataArray>
        <DataArray type="Float64" Name="STRAIN_XY" format="ascii">