<?xml version="1.0"?>
<!-- Time step: 2 | Time: 2.000000000000e+01 -->
<VTKFile type="UnstructuredGrid" version="0.1" byte_order="LittleEndian">
  <UnstructuredGrid>
    <Piece NumberOfPoints="121" NumberOfCells="100">
      <Points>
        <DataArray type="Float64" NumberOfComponents="3" format="ascii">
          0.000000000000e+00 0.000000000000e+00 0.000000000000e+00
          1.000000000000e-01 0.000000000000e+00 0.000000000000e+00
          2.000000000000e-01 0.000000000000e+00 0.000000000000e+00
          3.000000000000e-01 0.000000000000e+00 0.000000000000e+00
          4.000000000000e-01 0.000000000000e+00 0.000000000000e+00
          5.000000000000e-01 0.000000000000e+00 0.000000000000e+00
          6.000000000000e-01 0.000000000000e+00 0.000000000000e+00
          7.000000000000e-01 0.000000000000e+00 0.000000000000e+00
          8.000000000000e-01 0.000000000000e+00 0.000000000000e+00
          9.000000000000e-01 0.000000000000e+00 0.000000000000e+00
          1.000000000000e+00 0.000000000000e+00 0.000000000000e+00
          0.000000000000e+00 1.000000000000e-01 0.000000000000e+00
          1.000000000000e-01 1.000000000000e-01 0.000000000000e+00
          2.000000000000e-01 1.000000000000e-01 0.000000000000e+00
          3.000000000000e-01 1.000000000000e-01 0.000000000000e+00
          4.000000000000e-01 1.000000000000e-01 0.000000000000e+00
          5.000000000000e-01 1.000000000000e-01 0.000000000000e+00
          6.000000000000e-01 1.000000000000e-01 0.000000000000e+00
          7.000000000000e-01 1.000000000000e-01 0.000000000000e+00
          8.000000000000e-01 1.000000000000e-01 0.000000000000e+00
          9.000000000000e-01 1.000000000000e-01 0.000000000000e+00
          1.000000000000e+00 1.000000000000e-01 0.000000000000e+00
          0.000000000000e+00 2.000000000000e-01 0.000000000000e+00
          1.000000000000e-01 2.000000000000e-01 0.000000000000e+00
          2.000000000000e-01 2.000000000000e-01 0.000000000000e+00
          3.000000000000e-01 2.000000000000e-01 0.000000000000e+00
          4.000000000000e-01 2.000000000000e-01 0.000000000000e+00
          5.000000000000e-01 2.000000000000e-01 0.000000000000e+00
          6.000000000000e-01 2.000000000000e-01 0.000000000000e+00
          7.000000000000e-01 2.000000000000e-01 0.000000000000e+00
          8.000000000000e-01 2.000000000000e-01 0.000000000000e+00
          9.000000000000e-01 2.000000000000e-01 0.000000000000e+00
          1.000000000000e+00 2.000000000000e-01 0.000000000000e+00
          0.000000000000e+00 3.000000000000e-01 0.000000000000e+00
          1.000000000000e-01 3.000000000000e-01 0.000000000000e+00
          2.000000000000e-01 3.000000000000e-01 0.000000000000e+00
          3.000000000000e-01 3.000000000000e-01 0.000000000000e+00
          4.000000000000e-01 3.000000000000e-01 0.000000000000e+00
          5.000000000000e-01 3.000000000000e-01 0.000000000000e+00
          6.000000000000e-01 3.000000000000e-01 0.000000000000e+00
          7.000000000000e-01 3.000000000000e-01 0.000000000000e+00
          8.000000000000e-01 3.000000000000e-01 0.000000000000e+00
          9.000000000000e-01 3.000000000000e-01 0.000000000000e+00
          1.000000000000e+00 3.000000000000e-01 0.000000000000e+00
          0.000000000000e+00 4.000000000000e-01 0.000000000000e+00
          1.000000000000e-01 4.000000000000e-01 0.000000000000e+00
          2.000000000000e-01 4.000000000000e-01 0.000000000000e+00
          3.000000000000e-01 4.000000000000e-01 0.000000000000e+00
          4.000000000000e-01 4.000000000000e-01 0.000000000000e+00
          5.000000000000e-01 4.000000000000e-01 0.000000000000e+00
          6.000000000000e-01 4.000000000000e-01 0.000000000000e+00
          7.000000000000e-01 4.000000000000e-01 0.000000000000e+00
          8.000000000000e-01 4.000000000000e-01 0.000000000000e+00
          9.000000000000e-01 4.000000000000e-01 0.000000000000e+00
          1.000000000000e+00 4.000000000000e-01 0.000000000000e+00
          0.000000000000e+00 5.000000000000e-01 0.000000000000e+00
          1.000000000000e-01 5.000000000000e-01 0.000000000000e+00
          2.000000000000e-01 5.000000000000e-01 0.000000000000e+00
          3.000000000000e-01 5.000000000000e-01 0.000000000000e+00
          4.000000000000e-01 5.000000000000e-01 0.000000000000e+00
          5.000000000000e-01 5.000000000000e-01 0.000000000000e+00
          6.000000000000e-01 5.000000000000e-01 0.000000000000e+00
          7.000000000000e-01 5.000000000000e-01 0.000000000000e+00
          8.000000000000e-01 5.000000000000e-01 0.000000000000e+00
          9.000000000000e-01 5.000000000000e-01 0.000000000000e+00
          1.000000000000e+00 5.000000000000e-01 0.000000000000e+00
          0.000000000000e+00 6.000000000000e-01 0.000000000000e+00
          1.000000000000e-01 6.000000000000e-01 0.000000000000e+00
          2.000000000000e-01 6.000000000000e-01 0.000000000000e+00
          3.000000000000e-01 6.000000000000e-01 0.000000000000e+00
          4.000000000000e-01 6.000000000000e-01 0.000000000000e+00
          5.000000000000e-01 6.000000000000e-01 0.000000000000e+00
          6.000000000000e-01 6.000000000000e-01 0.000000000000e+00
          7.000000000000e-01 6.000000000000e-01 0.000000000000e+00
          8.000000000000e-01 6.000000000000e-01 0.000000000000e+00
          9.000000000000e-01 6.000000000000e-01 0.000000000000e+00
          1.000000000000e+00 6.000000000000e-01 0.000000000000e+00
          0.000000000000e+00 7.000000000000e-01 0.000000000000e+00
          1.000000000000e-01 7.000000000000e-01 0.000000000000e+00
          2.000000000000e-01 7.000000000000e-01 0.000000000000e+00
          3.000000000000e-01 7.000000000000e-01 0.000000000000e+00
          4.000000000000e-01 7.000000000000e-01 0.000000000000e+00
          5.000000000000e-01 7.000000000000e-01 0.000000000000e+00
          6.000000000000e-01 7.000000000000e-01 0.000000000000e+00
          7.000000000000e-01 7.000000000000e-01 0.000000000000e+00
          8.000000000000e-01 7.000000000000e-01 0.000000000000e+00
          9.000000000000e-01 7.000000000000e-01 0.000000000000e+00
          1.000000000000e+00 7.000000000000e-01 0.000000000000e+00
          0.000000000000e+00 8.000000000000e-01 0.000000000000e+00
          1.000000000000e-01 8.000000000000e-01 0.000000000000e+00
          2.000000000000e-01 8.000000000000e-01 0.000000000000e+00
          3.000000000000e-01 8.000000000000e-01 0.000000000000e+00
          4.000000000000e-01 8.000000000000e-01 0.000000000000e+00
          5.000000000000e-01 8.000000000000e-01 0.000000000000e+00
          6.000000000000e-01 8.000000000000e-01 0.000000000000e+00
          7.000000000000e-01 8.000000000000e-01 0.000000000000e+00
          8.000000000000e-01 8.000000000000e-01 0.000000000000e+00
          9.000000000000e-01 8.000000000000e-01 0.000000000000e+00
          1.000000000000e+00 8.000000000000e-01 0.000000000000e+00
          0.000000000000e+00 9.000000000000e-01 0.000000000000e+00
          1.000000000000e-01 9.000000000000e-01 0.000000000000e+00
          2.000000000000e-01 9.000000000000e-01 0.000000000000e+00
          3.000000000000e-01 9.000000000000e-01 0.000000000000e+00
          4.000000000000e-01 9.000000000000e-01 0.000000000000e+00
          5.000000000000e-01 9.000000000000e-01 0.000000000000e+00
          6.000000000000e-01 9.000000000000e-01 0.000000000000e+00
          7.000000000000e-01 9.000000000000e-01 0.000000000000e+00
          8.000000000000e-01 9.000000000000e-01 0.000000000000e+00
          9.000000000000e-01 9.000000000000e-01 0.000000000000e+00
          1.000000000000e+00 9.000000000000e-01 0.000000000000e+00
          0.000000000000e+00 1.000000000000e+00 0.000000000000e+00
          1.000000000000e-01 1.000000000000e+00 0.000000000000e+00
          2.000000000000e-01 1.000000000000e+00 0.000000000000e+00
          3.000000000000e-01 1.000000000000e+00 0.000000000000e+00
          4.000000000000e-01 1.000000000000e+00 0.000000000000e+00
          5.000000000000e-01 1.000000000000e+00 0.000000000000e+00
          6.000000000000e-01 1.000000000000e+00 0.000000000000e+00
          7.000000000000e-01 1.000000000000e+00 0.000000000000e+00
          8.000000000000e-01 1.000000000000e+00 0.000000000000e+00
          9.000000000000e-01 1.000000000000e+00 0.000000000000e+00
          1.000000000000e+00 1.000000000000e+00 0.000000000000e+00
        </DataArray>
      </Points>
      <Cells>
        <DataArray type="Int64" Name="connectivity" format="ascii">
          0 1 12 11 
          1 2 13 12 
          2 3 14 13 
          3 4 15 14 
          4 5 16 15 
          5 6 17 16 
          6 7 18 17 
          7 8 19 18 
          8 9 20 19 
          9 10 21 20 
          11 12 23 22 
          12 13 24 23 
          13 14 25 24 
          14 15 26 25 
          15 16 27 26 
          16 17 28 27 
          17 18 29 28 
          18 19 30 29 
          19 20 31 30 
          20 21 32 31 
          22 23 34 33 
          23 24 35 34 
          24 25 36 35 
          25 26 37 36 
          26 27 38 37 
          27 28 39 38 
          28 29 40 39 
          29 30 41 40 
          30 31 42 41 
          31 32 43 42 
          33 34 45 44 
          34 35 46 45 
          35 36 47 46 
          36 37 48 47 
          37 38 49 48 
          38 39 50 49 
          39 40 51 50 
          40 41 52 51 
          41 42 53 52 
          42 43 54 53 
          44 45 56 55 
          45 46 57 56 
          46 47 58 57 
          47 48 59 58 
          48 49 60 59 
          49 50 61 60 
          50 51 62 61 
          51 52 63 62 
          52 53 64 63 
          53 54 65 64 
          55 56 67 66 
          56 57 68 67 
          57 58 69 68 
          58 59 70 69 
          59 60 71 70 
          60 61 72 71 
          61 62 73 72 
          62 63 74 73 
          63 64 75 74 
          64 65 76 75 
          66 67 78 77 
          67 68 79 78 
          68 69 80 79 
          69 70 81 80 
          70 71 82 81 
          71 72 83 82 
          72 73 84 83 
          73 74 85 84 
          74 75 86 85 
          75 76 87 86 
          77 78 89 88 
          78 79 90 89 
          79 80 91 90 
          80 81 92 91 
          81 82 93 92 
          82 83 94 93 
          83 84 95 94 
          84 85 96 95 
          85 86 97 96 
          86 87 98 97 
          88 89 100 99 
          89 90 101 100 
          90 91 102 101 
          91 92 103 102 
          92 93 104 103 
          93 94 105 104 
          94 95 106 105 
          95 96 107 106 
          96 97 108 107 
          97 98 109 108 
          99 100 111 110 
          100 101 112 111 
          101 102 113 112 
          102 103 114 113 
          103 104 115 114 
          104 105 116 115 
          105 106 117 116 
          106 107 118 117 
          107 108 119 118 
          108 109 120 119 
        </DataArray>
        <DataArray type="Int64" Name="offsets" format="ascii">
          4 8 12 16 20 24 28 32 36 40 44 48 52 56 60 64 68 72 76 80 84 88 92 96 100 104 108 112 116 120 124 128 132 136 140 144 148 152 156 160 164 168 172 176 180 184 188 192 196 200 204 208 212 216 220 224 228 232 236 240 244 248 252 256 260 264 268 272 276 280 284 288 292 296 300 304 308 312 316 320 324 328 332 336 340 344 348 352 356 360 364 368 372 376 380 384 388 392 396 400 
        </DataArray>
        <DataArray type="UInt8" Name="types" format="ascii">
          9 9 9 9 9 9 9 9 9 9 9 9 9 9 9 9 9 9 9 9 9 9 9 9 9 9 9 9 9 9 9 9 9 9 9 9 9 9 9 9 9 9 9 9 9 9 9 9 9 9 9 9 9 9 9 9 9 9 9 9 9 9 9 9 9 9 9 9 9 9 9 9 9 9 9 9 9 9 9 9 9 9 9 9 9 9 9 9 9 9 9 9 9 9 9 9 9 9 9 9 
        </DataArray>
      </Cells>
      <PointData Scalars="PRESSURE1">
        <DataArray type="Float64" Name="PRESSURE1" format="ascii">
          1.254561113857e-03 1.137640291301e-03 1.014092597220e-03 8.888235433366e-04 7.627159810592e-04 6.361117710094e-04 5.091865638849e-04 3.820476864234e-04 2.547686483930e-04 1.274044630534e-04 0.000000000000e+00 1.264927694680e-03 1.139594955624e-03 1.014909582815e-03 8.892677566360e-04 7.629918047239e-04 6.362939697259e-04 5.093091493251e-04 3.821285332001e-04 2.548178981231e-04 1.274277963785e-04 0.000000000000e+00 1.269777594799e-03 1.142918584130e-03 1.016649065560e-03 8.903113855643e-04 7.636700352372e-04 6.367522205720e-04 5.096210247513e-04 3.823354262148e-04 2.549443014793e-04 1.274877640835e-04 0.000000000000e+00 1.273088159835e-03 1.145705920480e-03 1.018661844261e-03 8.916918640652e-04 7.646278723600e-04 6.374212410400e-04 5.100841653722e-04 3.826453507656e-04 2.551344788991e-04 1.275781681764e-04 0.000000000000e+00 1.275777216946e-03 1.148139194183e-03 1.020645822729e-03 8.932040035559e-04 7.657407815317e-04 6.382233701347e-04 5.106486006900e-04 3.830262341069e-04 2.553691781606e-04 1.276899513600e-04 0.000000000000e+00 1.278234268117e-03 1.150418425640e-03 1.022587873676e-03 8.947512439929e-04 7.669158687454e-04 6.390855422920e-04 5.112610212207e-04 3.834414982647e-04 2.556256806157e-04 1.278122545450e-04 0.000000000000e+00 1.280713725123e-03 1.152713350309e-03 1.024535331388e-03 8.962959600640e-04 7.680849824870e-04 6.399414972157e-04 5.118683244197e-04 3.838530470120e-04 2.558798124259e-04 1.279334109921e-04 0.000000000000e+00 1.283481056951e-03 1.155197385506e-03 1.026531442591e-03 8.977949688800e-04 7.691768567560e-04 6.407239759747e-04 5.124172738193e-04 3.842229067492e-04 2.561075429190e-04 1.280418370988e-04 0.000000000000e+00 1.286974284101e-03 1.158079648500e-03 1.028540091168e-03 8.991316312895e-04 7.700913254634e-04 6.413581247673e-04 5.128546609866e-04 3.845150490274e-04 2.562866415729e-04 1.281269389961e-04 0.000000000000e+00 1.292293172178e-03 1.161520357650e-03 1.030154417392e-03 9.000783092113e-04 7.706994264034e-04 6.417667283408e-04 5.131319752888e-04 3.846987560757e-04 2.563988013101e-04 1.281801331321e-04 0.000000000000e+00 1.304615251895e-03 1.162644193487e-03 1.030713585180e-03 9.003781173021e-04 7.708857584587e-04 6.418898030245e-04 5.132147804280e-04 3.847533669340e-04 2.564320692188e-04 1.281958952194e-04 0.000000000000e+00 
        </DataArray>
        <DataArray type="Float64" Name="TEMPERATURE1" format="ascii">
          5.231500000000e+02 4.708191940990e+02 4.184903841850e+02 3.661650185751e+02 3.138439511867e+02 2.615275189406e+02 2.092156179169e+02 1.569077784460e+02 1.046032393163e+02 5.230102127460e+01 0.000000000000e+00 5.231500000000e+02 4.708191940990e+02 4.184903841850e+02 3.661650185751e+02 3.138439511867e+02 2.615275189406e+02 2.092156179169e+02 1.569077784460e+02 1.046032393163e+02 5.230102127460e+01 0.000000000000e+00 5.231500000000e+02 4.708191940990e+02 4.184903841850e+02 3.661650185751e+02 3.138439511867e+02 2.615275189406e+02 2.092156179169e+02 1.569077784460e+02 1.046032393163e+02 5.230102127460e+01 0.000000000000e+00 5.231500000000e+02 4.708191940990e+02 4.184903841850e+02 3.661650185751e+02 3.138439511867e+02 2.615275189406e+02 2.092156179169e+02 1.569077784460e+02 1.046032393163e+02 5.230102127460e+01 0.000000000000e+00 5.231500000000e+02 4.708191940990e+02 4.184903841850e+02 3.661650185751e+02 3.138439511867e+02 2.615275189406e+02 2.092156179169e+02 1.569077784460e+02 1.046032393163e+02 5.230102127460e+01 0.000000000000e+00 5.231500000000e+02 4.708191940990e+02 4.184903841850e+02 3.661650185751e+02 3.138439511867e+02 2.615275189406e+02 2.092156179169e+02 1.569077784460e+02 1.046032393163e+02 5.230102127460e+01 0.000000000000e+00 5.231500000000e+02 4.708191940990e+02 4.184903841850e+02 3.661650185751e+02 3.138439511867e+02 2.615275189406e+02 2.092156179169e+02 1.569077784460e+02 1.046032393163e+02 5.230102127460e+01 0.000000000000e+00 5.231500000000e+02 4.708191940990e+02 4.184903841850e+02 3.661650185751e+02 3.138439511867e+02 2.615275189406e+02 2.092156179169e+02 1.569077784460e+02 1.046032393163e+02 5.230102127460e+01 0.000000000000e+00 5.231500000000e+02 4.708191940990e+02 4.184903841850e+02 3.661650185751e+02 3.138439511867e+02 2.615275189406e+02 2.092156179169e+02 1.569077784460e+02 1.046032393163e+02 5.230102127460e+01 0.000000000000e+00 5.231500000000e+02 4.708191940990e+02 4.184903841850e+02 3.661650185751e+02 3.138439511867e+02 2.615275189406e+02 2.092156179169e+02 1.569077784460e+02 1.046032393163e+02 5.230102127460e+01 0.000000000000e+00 5.231500000000e+02 4.708191940990e+02 4.184903841850e+02 3.661650185751e+02 3.138439511867e+02 2.615275189406e+02 2.092156179169e+02 1.569077784460e+02 1.046032393163e+02 5.230102127460e+01 0.000000000000e+00 
        </DataArray>
        <DataArray type="Float64" Name="STRESS_XX" format="ascii">
          -2.913275304974e-02 -2.858048896864e-02 -2.675524353758e-02 -2.383134768569e-02 -2.007317424640e-02 -1.579597467296e-02 -1.134004127915e-02 -7.063941102642e-03 -3.360820983663e-03 -6.935698322791e-04 2.665646934707e-04 -2.869087975777e-02 -2.814416324988e-02 -2.632144608494e-02 -2.341092873356e-02 -1.968524994430e-02 -1.546407746355e-02 -1.108547550710e-02 -6.898611444915e-03 -3.281035749171e-03 -6.766324797341e-04 2.606388949406e-04 -2.731750028629e-02 -2.677123335024e-02 -2.495648256794e-02 -2.208767029976e-02 -1.846454922366e-02 -1.441976578842e-02 -1.028373996289e-02 -6.376536645235e-03 -3.028013844117e-03 -6.229473776872e-04 2.417250292119e-04 -2.481237986914e-02 -2.426297957134e-02 -2.245997082687e-02 -1.966850063684e-02 -1.623635230178e-02 -1.251583541641e-02 -8.820276410231e-03 -5.418150461250e-03 -2.557853721767e-03 -5.206008921360e-04 2.065248599666e-04 -2.082220073389e-02 -2.026519718899e-02 -1.848057055261e-02 -1.582321242339e-02 -1.271341181663e-02 -9.520765241247e-03 -6.521049419029e-03 -3.903923944633e-03 -1.803556818423e-03 -3.509877476825e-04 1.499066584602e-04 -1.479685400627e-02 -1.422636657249e-02 -1.248135264203e-02 -1.007185582141e-02 -7.510247671475e-03 -5.152244997705e-03 -3.190853752204e-03 -1.703898131722e-03 -6.891210732402e-04 -9.072964099342e-05 6.601146987700e-05 -5.897539968407e-03 -5.307924502227e-03 -3.673391303297e-03 -1.772206896127e-03 -1.864860632570e-04 8.467871861002e-04 1.305476022128e-03 1.258814516778e-03 8.382304873101e-04 2.828706070656e-04 -4.929099671895e-05 7.203831927029e-03 7.810879263691e-03 9.103450719965e-03 9.862877034239e-03 9.637743613767e-03 8.557343051594e-03 6.893283489509e-03 4.883731232930e-03 2.736198344794e-03 7.778590517705e-04 -1.923188097083e-04 2.681208645145e-02 2.739370786290e-02 2.753773976604e-02 2.558451818487e-02 2.201057235193e-02 1.763648842810e-02 1.306020991626e-02 8.670845200534e-03 4.695787947701e-03 1.341594099152e-03 -3.335067588063e-04 5.753418103004e-02 5.800060112272e-02 5.351736520391e-02 4.535041240645e-02 3.615706113396e-02 2.703132471232e-02 1.861727666190e-02 1.138589671583e-02 5.694027606746e-03 1.633668948421e-03 -3.484907802033e-04 1.219527368864e-01 1.053548260485e-01 8.510376948725e-02 6.676426617296e-02 4.998564657548e-02 3.487660662828e-02 2.167015427067e-02 1.079392087330e-02 2.987235724934e-03 -5.526288846805e-04 -2.295490385881e-04 
        </DataArray>
        <DataArray type="Float64" Name="STRESS_XY" format="ascii">
          8.545342222434e-08 -1.133873473797e-06 -2.708965053940e-06 -4.296563647749e-06 -5.930419987825e-06 -7.450818673265e-06 -8.678675225059e-06 -9.456787703600e-06 -9.726093766797e-06 -1.092747356096e-05 2.454341835271e-05 -3.556211373724e-06 -1.324312921598e-03 -2.524066033262e-03 -3.495088574382e-03 -4.170078949851e-03 -4.514585570337e-03 -4.511624520452e-03 -4.139398586739e-03 -3.348192563313e-03 -2.042596361319e-03 -7.043576558317e-05 -7.828690838660e-06 -2.649534442056e-03 -5.035186257137e-03 -6.945640841150e-03 -8.250420603650e-03 -8.892027690918e-03 -8.850697298383e-03 -8.096449107088e-03 -6.540137188665e-03 -3.993668356316e-03 -1.404146612754e-04 -1.288329678282e-05 -3.975302332527e-03 -7.518479582246e-03 -1.029946927204e-02 -1.213678629993e-02 -1.297550268672e-02 -1.282195732434e-02 -1.166455620747e-02 -9.395949585831e-03 -5.744357285189e-03 -2.085461975782e-04 -1.969603561411e-05 -5.304346947221e-03 -9.953384473340e-03 -1.348336232229e-02 -1.568953747049e-02 -1.656505070338e-02 -1.618499444804e-02 -1.459184021476e-02 -1.169178637530e-02 -7.151636135506e-03 -2.706853727044e-04 -2.994348660716e-05 -6.639960097365e-03 -1.230001170169e-02 -1.637278305221e-02 -1.869595850900e-02 -1.938509444306e-02 -1.863315053724e-02 -1.656897283929e-02 -1.314945238309e-02 -8.026892661207e-03 -3.182004027679e-04 -4.734009672210e-05 -7.979950338317e-03 -1.446016834072e-02 -1.872149554563e-02 -2.079821857247e-02 -2.103623891728e-02 -1.977682519345e-02 -1.723612982797e-02 -1.344832285146e-02 -8.136076377429e-03 -3.350351221182e-04 -8.163398334694e-05 -9.296988433969e-03 -1.616849356097e-02 -2.000227245736e-02 -2.136425876196e-02 -2.092849400752e-02 -1.913682244158e-02 -1.622325884285e-02 -1.228232235311e-02 -7.227251415690e-03 -2.921551460080e-04 -1.654551788981e-04 -1.046559760795e-02 -1.666225478367e-02 -1.907330279531e-02 -1.930697400060e-02 -1.821560509482e-02 -1.615084675807e-02 -1.322583459732e-02 -9.496512803078e-03 -5.129784170822e-03 -1.340451488018e-04 -5.216827822385e-04 -1.091182499209e-02 -1.355266222798e-02 -1.370705314206e-02 -1.299794067475e-02 -1.180145143896e-02 -1.017526581004e-02 -8.043755804618e-03 -5.299781955042e-03 -2.089158396453e-03 2.465144993345e-04 -2.229952131712e-03 -2.310591594833e-03 -1.186008617351e-03 -8.073853300021e-04 -6.149710370806e-04 -4.937398388785e-04 -3.981635577549e-04 -2.910548225430e-04 -1.134565106720e-04 2.549619171434e-04 3.148044979889e-04 
        </DataArray>
        <DataArray type="Float64" Name="STRESS_YY" format="ascii">
          -6.709104666171e-02 -4.691700825565e-02 -3.013519713030e-02 -1.638562020645e-02 -5.117818182058e-03 4.358638458041e-03 1.283314711364e-02 2.117713664349e-02 3.035801216905e-02 4.148237273224e-02 5.586294524030e-02 -6.640952441385e-02 -4.627313681722e-02 -2.958252508683e-02 -1.596593821067e-02 -4.856222210105e-03 4.449840262707e-03 1.274495710867e-02 2.089234307072e-02 2.984072732828e-02 4.067209340433e-02 5.467753982046e-02 -6.438911328286e-02 -4.435200601502e-02 -2.793975687974e-02 -1.472996597664e-02 -4.098681228754e-03 4.698512638389e-03 1.246489542200e-02 2.003809446201e-02 2.830811168138e-02 3.827751411329e-02 5.116461563975e-02 -6.102267826601e-02 -4.116289634364e-02 -2.524225510267e-02 -1.273922595914e-02 -2.919493805099e-03 5.038104054458e-03 1.195555951678e-02 1.862469767682e-02 2.582973392800e-02 3.442384307728e-02 4.547327595391e-02 -5.630144984241e-02 -3.671946050298e-02 -2.155599240260e-02 -1.010809271875e-02 -1.452635589085e-03 5.351880470850e-03 1.115186898572e-02 1.666849018373e-02 2.252570867659e-02 2.933687003659e-02 3.789034046085e-02 -5.020738742397e-02 -3.104601580692e-02 -1.699677598993e-02 -7.025900359169e-03 9.537575009872e-05 5.471303637721e-03 9.964213981412e-03 1.419382963505e-02 1.857069907546e-02 2.336396494915e-02 2.889701393272e-02 -4.270782243388e-02 -2.419247759505e-02 -1.177413577119e-02 -3.795821924234e-03 1.436616773346e-03 5.192573073736e-03 8.300806948575e-03 1.124450176464e-02 1.419480840159e-02 1.699147483182e-02 1.924249764498e-02 -3.374780672083e-02 -1.628129684201e-02 -6.294327660287e-03 -8.931888002873e-04 2.221307325515e-03 4.339350074775e-03 6.132388486731e-03 7.918622635952e-03 9.676565869964e-03 1.083706933541e-02 1.002369341187e-02 -2.322306869529e-02 -7.658847432155e-03 -1.407675868258e-03 1.003022146592e-03 2.152620646576e-03 2.907224736159e-03 3.623250038701e-03 4.456064831673e-03 5.335164574877e-03 5.568431228504e-03 2.747948040007e-03 -1.046849463556e-02 2.206805800367e-04 1.182760010100e-03 1.312369095874e-03 1.299843889439e-03 1.280713766981e-03 1.309294688675e-03 1.421864507150e-03 1.617304439339e-03 1.639739371101e-03 -6.679886180954e-04 2.593317131225e-03 2.111174494675e-03 1.203626620981e-03 8.717519239321e-04 6.535185716103e-04 4.633082353136e-04 2.731278281035e-04 7.199889726627e-05 -1.283998922724e-04 -2.271239553371e-04 -2.303910512732e-04 
        </DataArray>
        <DataArray type="Float64" Name="STRESS_ZZ" format="ascii">
          -1.826732399134e-01 -1.610700922324e-01 -1.401033051507e-01 -1.197176058287e-01 -9.982741937743e-02 -8.032029143302e-02 -6.106145991721e-02 -4.189692820088e-02 -2.265419500338e-02 -3.139859384744e-03 1.683885298013e-02 -1.823362212515e-01 -1.607460330852e-01 -1.398073643019e-01 -1.194655755443e-01 -9.963256329522e-02 -8.019336172880e-02 -6.101154718709e-02 -4.193276737540e-02 -2.278544488526e-02 -3.377861977355e-03 1.648145361462e-02 -1.813180840707e-01 -1.597578148747e-01 -1.389050447847e-01 -1.186978063440e-01 -9.903909078462e-02 -7.980546651355e-02 -6.085504502982e-02 -4.203241951810e-02 -2.316932300781e-02 -4.080130234053e-03 1.542190220069e-02 -1.795566174405e-01 -1.580486058396e-01 -1.373468407292e-01 -1.173748334399e-01 -9.801687548096e-02 -7.913240997713e-02 -6.056880673559e-02 -4.216892269846e-02 -2.377178829712e-02 -5.205527599190e-03 1.370394024416e-02 -1.769431951729e-01 -1.555162403727e-01 -1.350471418369e-01 -1.154319070037e-01 -9.651993587061e-02 -7.813975599967e-02 -6.012014579755e-02 -4.230151699141e-02 -2.453670680154e-02 -6.680735568060e-03 1.141207413579e-02 -1.733073724291e-01 -1.520025577789e-01 -1.318796115400e-01 -1.127818423152e-01 -9.449458322531e-02 -7.679337297654e-02 -5.947738359879e-02 -4.238390741214e-02 -2.538887895833e-02 -8.394529662288e-03 8.688907620779e-03 -1.683877087207e-01 -1.472709636943e-01 -1.276704310727e-01 -1.093229241072e-01 -9.189508243587e-02 -7.507728249060e-02 -5.862750677635e-02 -4.237989197871e-02 -2.624344069232e-02 -1.019419662307e-02 5.757961994477e-03 -1.617692924381e-01 -1.409619683386e-01 -1.221934360325e-01 -1.049616089909e-01 -8.871240636711e-02 -7.302008263064e-02 -5.760169007469e-02 -4.229018070247e-02 -2.702952309457e-02 -1.189202173858e-02 2.949412380648e-03 -1.527293946732e-01 -1.325003849359e-01 -1.151971537810e-01 -9.967625336164e-02 -8.502116374935e-02 -7.072597661927e-02 -5.650435368107e-02 -4.219281385347e-02 -2.774406660222e-02 -1.330349265644e-02 7.243323843601e-04 -1.396863940817e-01 -1.209544585543e-01 -1.066261353862e-01 -9.365368101038e-02 -8.103305014188e-02 -6.839547902475e-02 -5.553142026238e-02 -4.228855849624e-02 -2.855995274517e-02 -1.439447775888e-02 -3.049438194896e-04 -1.164422837947e-01 -1.061810429022e-01 -9.714395411791e-02 -8.736171003201e-02 -7.707837210477e-02 -6.628711610947e-02 -5.492640703793e-02 -4.287111093197e-02 -2.989570160919e-02 -1.561042610674e-02 -1.379820269584e-04 
        </DataArray>
        <DataArray type="Float64" Name="STRAIN_XX" format="ascii">
          9.504887282038e-03 8.201737344898e-03 7.016784766529e-03 5.935815980283e-03 4.937167555731e-03 3.994362466099e-03 3.077992582356e-03 2.156327772748e-03 1.194351725030e-03 1.514369722955e-04 -1.025903560603e-03 9.511378282944e-03 8.208687180284e-03 7.025318746765e-03 5.946240040668e-03 4.949119397914e-03 4.007050930706e-03 3.090661580189e-03 2.168781081411e-03 1.207415803663e-03 1.672189689004e-04 -1.004145673123e-03 9.533369472371e-03 8.232502665798e-03 7.053958613418e-03 5.980627469405e-03 4.987947810917e-03 4.047686235366e-03 3.130604599382e-03 2.207268939749e-03 1.246842948229e-03 2.140160815845e-04 -9.397252534724e-04 9.579405182992e-03 8.281967340416e-03 7.112044327290e-03 6.048487268759e-03 5.062603815854e-03 4.123883187092e-03 3.203480448713e-03 2.275047805161e-03 1.313243568951e-03 2.900192723415e-04 -8.355542856883e-04 9.664632989081e-03 8.372683625658e-03 7.216025841411e-03 6.166252521640e-03 5.188022917628e-03 4.247842285045e-03 3.318039299623e-03 2.376993855277e-03 1.407290237050e-03 3.918415317377e-04 -6.971817962158e-04 9.812555902364e-03 8.529002312779e-03 7.391320788920e-03 6.358237259143e-03 5.384744581904e-03 4.434926970118e-03 3.484404228598e-03 2.518286288788e-03 1.529032630982e-03 5.140447632230e-04 -5.337983331511e-04 1.005891520847e-02 8.788188140461e-03 7.676007223822e-03 6.657901541637e-03 5.677198823067e-03 4.700061456176e-03 3.710137030382e-03 2.701443735435e-03 1.676484406358e-03 6.485803523416e-04 -3.594966137407e-04 1.046024103213e-02 9.209747708713e-03 8.127902513247e-03 7.108182468222e-03 6.088342617864e-03 5.050031113662e-03 3.992545982545e-03 2.920289786477e-03 1.842639898627e-03 7.843259536883e-04 -1.944881213078e-04 1.111447264105e-02 9.898205744686e-03 8.835969600534e-03 7.754238238593e-03 6.625774139603e-03 5.470057360075e-03 4.306377746501e-03 3.148702703343e-03 2.008181472138e-03 9.066006086793e-04 -6.548528029125e-05 1.220889274501e-02 1.107817036096e-02 9.913645274625e-03 8.605015306756e-03 7.254625936123e-03 5.907373564676e-03 4.590157428646e-03 3.322704370271e-03 2.120484497976e-03 9.922186056899e-04 -2.695764234658e-06 1.475778699455e-02 1.309507760171e-02 1.128200193746e-02 9.541131860308e-03 7.865867823063e-03 6.262516169480e-03 4.741691890532e-03 3.322121016517e-03 2.035610406398e-03 9.321493518417e-04 -5.668434053267e-06 
        </DataArray>
        <DataArray type="Float64" Name="STRAIN_XY" format="ascii">