<?xml version="1.0"?>
<!-- Time step: 4 | Time: 4.000000000000e+01 -->
<VTKFile type="UnstructuredGrid" version="0.1" byte_order="LittleEndian">
  <UnstructuredGrid>
    <Piece NumberOfPoints="121" NumberOfCells="100">
      <Points>
        <DataArray type="Float64" NumberOfComponents="3" format="ascii">
          0.000000000000e+00 0.000000000000e+00 0.000000000000e+00
          1.000000000000e-01 0.000000000000e+00 0.000000000000e+00
          2.000000000000e-01 0.000000000000e+00 0.000000000000e+00
          3.000000000000e-01 0.000000000000e+00 0.000000000000e+00
          4.000000000000e-01 0.000000000000e+00 0.000000000000e+00
          5.000000000000e-01 0.000000000000e+00 0.000000000000e+00
          6.000000000000e-01 0.000000000000e+00 0.000000000000e+00
          7.000000000000e-01 0.000000000000e+00 0.000000000000e+00
          8.000000000000e-01 0.000000000000e+00 0.000000000000e+00
          9.000000000000e-01 0.000000000000e+00 0.000000000000e+00
          1.000000000000e+00 0.000000000000e+00 0.000000000000e+00
          0.000000000000e+00 1.000000000000e-01 0.000000000000e+00
          1.000000000000e-01 1.000000000000e-01 0.000000000000e+00
          2.000000000000e-01 1.000000000000e-01 0.000000000000e+00
          3.000000000000e-01 1.000000000000e-01 0.000000000000e+00
          4.000000000000e-01 1.000000000000e-01 0.000000000000e+00
          5.000000000000e-01 1.000000000000e-01 0.000000000000e+00
          6.000000000000e-01 1.000000000000e-01 0.000000000000e+00
          7.000000000000e-01 1.000000000000e-01 0.000000000000e+00
          8.000000000000e-01 1.000000000000e-01 0.000000000000e+00
          9.000000000000e-01 1.000000000000e-01 0.000000000000e+00
          1.000000000000e+00 1.000000000000e-01 0.000000000000e+00
          0.000000000000e+00 2.000000000000e-01 0.000000000000e+00
          1.000000000000e-01 2.000000000000e-01 0.000000000000e+00
          2.000000000000e-01 2.000000000000e-01 0.000000000000e+00
          3.000000000000e-01 2.000000000000e-01 0.000000000000e+00
          4.000000000000e-01 2.000000000000e-01 0.000000000000e+00
          5.000000000000e-01 2.000000000000e-01 0.000000000000e+00
          6.000000000000e-01 2.000000000000e-01 0.000000000000e+00
          7.000000000000e-01 2.000000000000e-01 0.000000000000e+00
          8.000000000000e-01 2.000000000000e-01 0.000000000000e+00
          9.000000000000e-01 2.000000000000e-01 0.000000000000e+00
          1.000000000000e+00 2.000000000000e-01 0.000000000000e+00
          0.000000000000e+00 3.000000000000e-01 0.000000000000e+00
          1.000000000000e-01 3.000000000000e-01 0.000000000000e+00
          2.000000000000e-01 3.000000000000e-01 0.000000000000e+00
          3.000000000000e-01 3.000000000000e-01 0.000000000000e+00
          4.000000000000e-01 3.000000000000e-01 0.000000000000e+00
          5.000000000000e-01 3.000000000000e-01 0.000000000000e+00
          6.000000000000e-01 3.000000000000e-01 0.000000000000e+00
          7.000000000000e-01 3.000000000000e-01 0.000000000000e+00
          8.000000000000e-01 3.000000000000e-01 0.000000000000e+00
          9.000000000000e-01 3.000000000000e-01 0.000000000000e+00
          1.000000000000e+00 3.000000000000e-01 0.000000000000e+00
          0.000000000000e+00 4.000000000000e-01 0.000000000000e+00
          1.000000000000e-01 4.000000000000e-01 0.000000000000e+00
          2.000000000000e-01 4.000000000000e-01 0.000000000000e+00
          3.000000000000e-01 4.000000000000e-01 0.000000000000e+00
          4.000000000000e-01 4.000000000000e-01 0.000000000000e+00
          5.000000000000e-01 4.000000000000e-01 0.000000000000e+00
          6.000000000000e-01 4.000000000000e-01 0.000000000000e+00
          7.000000000000e-01 4.000000000000e-01 0.000000000000e+00
          8.000000000000e-01 4.000000000000e-01 0.000000000000e+00
          9.000000000000e-01 4.000000000000e-01 0.000000000000e+00
          1.000000000000e+00 4.000000000000e-01 0.000000000000e+00
          0.000000000000e+00 5.000000000000e-01 0.000000000000e+00
          1.000000000000e-01 5.000000000000e-01 0.000000000000e+00
          2.000000000000e-01 5.000000000000e-01 0.000000000000e+00
          3.000000000000e-01 5.000000000000e-01 0.000000000000e+00
          4.000000000000e-01 5.000000000000e-01 0.000000000000e+00
          5.000000000000e-01 5.000000000000e-01 0.000000000000e+00
          6.000000000000e-01 5.000000000000e-01 0.000000000000e+00
          7.000000000000e-01 5.000000000000e-01 0.000000000000e+00
          8.000000000000e-01 5.000000000000e-01 0.000000000000e+00
          9.000000000000e-01 5.000000000000e-01 0.000000000000e+00
          1.000000000000e+00 5.000000000000e-01 0.000000000000e+00
          0.000000000000e+00 6.000000000000e-01 0.000000000000e+00
          1.000000000000e-01 6.000000000000e-01 0.000000000000e+00
          2.000000000000e-01 6.000000000000e-01 0.000000000000e+00
          3.000000000000e-01 6.000000000000e-01 0.000000000000e+00
          4.000000000000e-01 6.000000000000e-01 0.000000000000e+00
          5.000000000000e-01 6.000000000000e-01 0.000000000000e+00
          6.000000000000e-01 6.000000000000e-01 0.000000000000e+00
          7.000000000000e-01 6.000000000000e-01 0.000000000000e+00
          8.000000000000e-01 6.000000000000e-01 0.000000000000e+00
          9.000000000000e-01 6.000000000000e-01 0.000000000000e+00
          1.000000000000e+00 6.000000000000e-01 0.000000000000e+00
          0.000000000000e+00 7.000000000000e-01 0.000000000000e+00
          1.000000000000e-01 7.000000000000e-01 0.000000000000e+00
          2.000000000000e-01 7.000000000000e-01 0.000000000000e+00
          3.000000000000e-01 7.000000000000e-01 0.000000000000e+00
          4.000000000000e-01 7.000000000000e-01 0.000000000000e+00
          5.000000000000e-01 7.000000000000e-01 0.000000000000e+00
          6.000000000000e-01 7.000000000000e-01 0.000000000000e+00
          7.000000000000e-01 7.000000000000e-01 0.000000000000e+00
          8.000000000000e-01 7.000000000000e-01 0.000000000000e+00
          9.000000000000e-01 7.000000000000e-01 0.000000000000e+00
          1.000000000000e+00 7.000000000000e-01 0.000000000000e+00
          0.000000000000e+00 8.000000000000e-01 0.000000000000e+00
          1.000000000000e-01 8.000000000000e-01 0.000000000000e+00
          2.000000000000e-01 8.000000000000e-01 0.000000000000e+00
          3.000000000000e-01 8.000000000000e-01 0.000000000000e+00
          4.000000000000e-01 8.000000000000e-01 0.000000000000e+00
          5.000000000000e-01 8.000000000000e-01 0.000000000000e+00
          6.000000000000e-01 8.000000000000e-01 0.000000000000e+00
          7.000000000000e-01 8.000000000000e-01 0.000000000000e+00
          8.000000000000e-01 8.000000000000e-01 0.000000000000e+00
          9.000000000000e-01 8.000000000000e-01 0.000000000000e+00
          1.000000000000e+00 8.000000000000e-01 0.000000000000e+00
          0.000000000000e+00 9.000000000000e-01 0.000000000000e+00
          1.000000000000e-01 9.000000000000e-01 0.000000000000e+00
          2.000000000000e-01 9.000000000000e-01 0.000000000000e+00
          3.000000000000e-01 9.000000000000e-01 0.000000000000e+00
          4.000000000000e-01 9.000000000000e-01 0.000000000000e+00
          5.000000000000e-01 9.000000000000e-01 0.000000000000e+00
          6.000000000000e-01 9.000000000000e-01 0.000000000000e+00
          7.000000000000e-01 9.000000000000e-01 0.000000000000e+00
          8.000000000000e-01 9.000000000000e-01 0.000000000000e+00
          9.000000000000e-01 9.000000000000e-01 0.000000000000e+00
          1.000000000000e+00 9.000000000000e-01 0.000000000000e+00
          0.000000000000e+00 1.000000000000e+00 0.000000000000e+00
          1.000000000000e-01 1.000000000000e+00 0.000000000000e+00
          2.000000000000e-01 1.000000000000e+00 0.000000000000e+00
          3.000000000000e-01 1.000000000000e+00 0.000000000000e+00
          4.000000000000e-01 1.000000000000e+00 0.000000000000e+00
          5.000000000000e-01 1.000000000000e+00 0.000000000000e+00
          6.000000000000e-01 1.000000000000e+00 0.000000000000e+00
          7.000000000000e-01 1.000000000000e+00 0.000000000000e+00
          8.000000000000e-01 1.000000000000e+00 0.000000000000e+00
          9.000000000000e-01 1.000000000000e+00 0.000000000000e+00
          1.000000000000e+00 1.000000000000e+00 0.000000000000e+00
        </DataArray>
      </Points>
      <Cells>
        <DataArray type="Int64" Name="connectivity" format="ascii">
          0 1 12 11 
          1 2 13 12 
          2 3 14 13 
          3 4 15 14 
          4 5 16 15 
          5 6 17 16 
          6 7 18 17 
          7 8 19 18 
          8 9 20 19 
          9 10 21 20 
          11 12 23 22 
          12 13 24 23 
          13 14 25 24 
          14 15 26 25 
          15 16 27 26 
          16 17 28 27 
          17 18 29 28 
          18 19 30 29 
          19 20 31 30 
          20 21 32 31 
          22 23 34 33 
          23 24 35 34 
          24 25 36 35 
          25 26 37 36 
          26 27 38 37 
          27 28 39 38 
          28 29 40 39 
          29 30 41 40 
          30 31 42 41 
          31 32 43 42 
          33 34 45 44 
          34 35 46 45 
          35 36 47 46 
          36 37 48 47 
          37 38 49 48 
          38 39 50 49 
          39 40 51 50 
          40 41 52 51 
          41 42 53 52 
          42 43 54 53 
          44 45 56 55 
          45 46 57 56 
          46 47 58 57 
          47 48 59 58 
          48 49 60 59 
          49 50 61 60 
          50 51 62 61 
          51 52 63 62 
          52 53 64 63 
          53 54 65 64 
          55 56 67 66 
          56 57 68 67 
          57 58 69 68 
          58 59 70 69 
          59 60 71 70 
          60 61 72 71 
          61 62 73 72 
          62 63 74 73 
          63 64 75 74 
          64 65 76 75 
          66 67 78 77 
          67 68 79 78 
          68 69 80 79 
          69 70 81 80 
          70 71 82 81 
          71 72 83 82 
          72 73 84 83 
          73 74 85 84 
          74 75 86 85 
          75 76 87 86 
          77 78 89 88 
          78 79 90 89 
          79 80 91 90 
          80 81 92 91 
          81 82 93 92 
          82 83 94 93 
          83 84 95 94 
          84 85 96 95 
          85 86 97 96 
          86 87 98 97 
          88 89 100 99 
          89 90 101 100 
          90 91 102 101 
          91 92 103 102 
          92 93 104 103 
          93 94 105 104 
          94 95 106 105 
          95 96 107 106 
          96 97 108 107 
          97 98 109 108 
          99 100 111 110 
          100 101 112 111 
          101 102 113 112 
          102 103 114 113 
          103 104 115 114 
          104 105 116 115 
          105 106 117 116 
          106 107 118 117 
          107 108 119 118 
          108 109 120 119 
        </DataArray>
        <DataArray type="Int64" Name="offsets" format="ascii">
          4 8 12 16 20 24 28 32 36 40 44 48 52 56 60 64 68 72 76 80 84 88 92 96 100 104 108 112 116 120 124 128 132 136 140 144 148 152 156 160 164 168 172 176 180 184 188 192 196 200 204 208 212 216 220 224 228 232 236 240 244 248 252 256 260 264 268 272 276 280 284 288 292 296 300 304 308 312 316 320 324 328 332 336 340 344 348 352 356 360 364 368 372 376 380 384 388 392 396 400 
        </DataArray>
        <DataArray type="UInt8" Name="types" format="ascii">
          9 9 9 9 9 9 9 9 9 9 9 9 9 9 9 9 9 9 9 9 9 9 9 9 9 9 9 9 9 9 9 9 9 9 9 9 9 9 9 9 9 9 9 9 9 9 9 9 9 9 9 9 9 9 9 9 9 9 9 9 9 9 9 9 9 9 9 9 9 9 9 9 9 9 9 9 9 9 9 9 9 9 9 9 9 9 9 9 9 9 9 9 9 9 9 9 9 9 9 9 
        </DataArray>
      </Cells>
      <PointData Scalars="PRESSURE1">
        <DataArray type="Float64" Name="PRESSURE1" format="ascii">
          1.254560208829e-03 1.137639363816e-03 1.014091644595e-03 8.888225882267e-04 7.627150610516e-04 6.361109300377e-04 5.091858450456e-04 3.820471260577e-04 2.547682713106e-04 1.274042787839e-04 0.000000000000e+00 1.264926792074e-03 1.139594029624e-03 1.014908631630e-03 8.892668029958e-04 7.629908861674e-04 6.362931300815e-04 5.093084315690e-04 3.821279735824e-04 2.548175214319e-04 1.274276122192e-04 0.000000000000e+00 1.269776696069e-03 1.142917661972e-03 1.016648118288e-03 8.903104359813e-04 7.636691207227e-04 6.367513846492e-04 5.096203100496e-04 3.823348687180e-04 2.549439259032e-04 1.274875802347e-04 0.000000000000e+00 1.273087266497e-03 1.145705003951e-03 1.018660903075e-03 8.916909210159e-04 7.646269645132e-04 6.374204113605e-04 5.100834558577e-04 3.826447969047e-04 2.551341052488e-04 1.275779848649e-04 0.000000000000e+00 1.275776329907e-03 1.148138284484e-03 1.020644889364e-03 8.932030693363e-04 7.657398830210e-04 6.382225494081e-04 5.106478987379e-04 3.830256856152e-04 2.553688073866e-04 1.276897688594e-04 0.000000000000e+00 1.278233387246e-03 1.150417523072e-03 1.022586949260e-03 8.947503206324e-04 7.669149822628e-04 6.390847334301e-04 5.112603294741e-04 3.834409571192e-04 2.556253138291e-04 1.278120731849e-04 0.000000000000e+00 1.280712848830e-03 1.152712453940e-03 1.024534416231e-03 8.962950492086e-04 7.680841106540e-04 6.399407032264e-04 5.118676456744e-04 3.838525153365e-04 2.558794508424e-04 1.279332311418e-04 0.000000000000e+00 1.283480181841e-03 1.155196492915e-03 1.026530536036e-03 8.977940716268e-04 7.691760018440e-04 6.407231995729e-04 5.124166106059e-04 3.842223864624e-04 2.561071876441e-04 1.280416590971e-04 0.000000000000e+00 1.286973405012e-03 1.158078755907e-03 1.028539191665e-03 8.991307478763e-04 7.700904886484e-04 6.413573673858e-04 5.128540145793e-04 3.845145410401e-04 2.562862931039e-04 1.281267629834e-04 0.000000000000e+00 1.292292283578e-03 1.161519461342e-03 1.030153522945e-03 9.000774380473e-04 7.706986058782e-04 6.417659879636e-04 5.131313437457e-04 3.846982588219e-04 2.563984586493e-04 1.281799587332e-04 0.000000000000e+00 1.304614355079e-03 1.162643294436e-03 1.030712692978e-03 9.003772516901e-04 7.708849451049e-04 6.418890699560e-04 5.132141551471e-04 3.847528740885e-04 2.564317287901e-04 1.281957212666e-04 0.000000000000e+00 
        </DataArray>
        <DataArray type="Float64" Name="TEMPERATURE1" format="ascii">
          5.231500000000e+02 4.708349979021e+02 4.185199960119e+02 3.662049945157e+02 3.138899935598e+02 2.615749932364e+02 2.092599935748e+02 1.569449945399e+02 1.046299960361e+02 5.231499791709e+01 0.000000000000e+00 5.231500000000e+02 4.708349979021e+02 4.185199960119e+02 3.662049945157e+02 3.138899935598e+02 2.615749932364e+02 2.092599935748e+02 1.569449945399e+02 1.046299960361e+02 5.231499791709e+01 0.000000000000e+00 5.231500000000e+02 4.708349979021e+02 4.185199960119e+02 3.662049945157e+02 3.138899935598e+02 2.615749932364e+02 2.092599935748e+02 1.569449945399e+02 1.046299960361e+02 5.231499791709e+01 0.000000000000e+00 5.231500000000e+02 4.708349979021e+02 4.185199960119e+02 3.662049945157e+02 3.138899935598e+02 2.615749932364e+02 2.092599935748e+02 1.569449945399e+02 1.046299960361e+02 5.231499791709e+01 0.000000000000e+00 5.231500000000e+02 4.708349979021e+02 4.185199960119e+02 3.662049945157e+02 3.138899935598e+02 2.615749932364e+02 2.092599935748e+02 1.569449945399e+02 1.046299960361e+02 5.231499791709e+01 0.000000000000e+00 5.231500000000e+02 4.708349979021e+02 4.185199960119e+02 3.662049945157e+02 3.138899935598e+02 2.615749932364e+02 2.092599935748e+02 1.569449945399e+02 1.046299960361e+02 5.231499791709e+01 0.000000000000e+00 5.231500000000e+02 4.708349979021e+02 4.185199960119e+02 3.662049945157e+02 3.138899935598e+02 2.615749932364e+02 2.092599935748e+02 1.569449945399e+02 1.046299960361e+02 5.231499791709e+01 0.000000000000e+00 5.231500000000e+02 4.708349979021e+02 4.185199960119e+02 3.662049945157e+02 3.138899935598e+02 2.615749932364e+02 2.092599935748e+02 1.569449945399e+02 1.046299960361e+02 5.231499791709e+01 0.000000000000e+00 5.231500000000e+02 4.708349979021e+02 4.185199960119e+02 3.662049945157e+02 3.138899935598e+02 2.615749932364e+02 2.092599935748e+02 1.569449945399e+02 1.046299960361e+02 5.231499791709e+01 0.000000000000e+00 5.231500000000e+02 4.708349979021e+02 4.185199960119e+02 3.662049945157e+02 3.138899935598e+02 2.615749932364e+02 2.092599935748e+02 1.569449945399e+02 1.046299960361e+02 5.231499791709e+01 0.000000000000e+00 5.231500000000e+02 4.708349979021e+02 4.185199960119e+02 3.662049945157e+02 3.138899935598e+02 2.615749932364e+02 2.092599935748e+02 1.569449945399e+02 1.046299960361e+02 5.231499791709e+01 0.000000000000e+00 
        </DataArray>
        <DataArray type="Float64" Name="STRESS_XX" format="ascii">
          -2.913325240375e-02 -2.858101903604e-02 -2.675585181035e-02 -2.383204513339e-02 -2.007392618720e-02 -1.579670834567e-02 -1.134066783463e-02 -7.064385741282e-03 -3.361052992640e-03 -6.936235999985e-04 2.665822181304e-04 -2.869134077563e-02 -2.814465994368e-02 -2.632203422262e-02 -2.341162335301e-02 -1.968601538018e-02 -1.546483578379e-02 -1.108613038378e-02 -6.899080475312e-03 -3.281282669435e-03 -6.766903560713e-04 2.606575828255e-04 -2.731784107194e-02 -2.677162527627e-02 -2.495700701055e-02 -2.208835449652e-02 -1.846535402522e-02 -1.442059725475e-02 -1.028447921879e-02 -6.377078645683e-03 -3.028305705192e-03 -6.230178085245e-04 2.417472214483e-04 -2.481250411739e-02 -2.426318262207e-02 -2.246037907091e-02 -1.966916112980e-02 -1.623721794492e-02 -1.251678403330e-02 -8.821151726638e-03 -5.418811023566e-03 -2.558219723702e-03 -5.206926457888e-04 2.065528234690e-04 -2.082199342968e-02 -2.026511119053e-02 -1.848079899849e-02 -1.582382694371e-02 -1.271434837280e-02 -9.521859490347e-03 -6.522095351711e-03 -3.904734811393e-03 -1.804019256638e-03 -3.511086902784e-04 1.499420839259e-04 -1.479618956758e-02 -1.422588387990e-02 -1.248133295203e-02 -1.007239040252e-02 -7.511237824151e-03 -5.153470782138e-03 -3.192056422326e-03 -1.704849777250e-03 -6.896785814764e-04 -9.088248897857e-05 6.605408258622e-05 -5.896320132181e-03 -5.306966894580e-03 -3.673075142758e-03 -1.772611495786e-03 -1.874477826325e-04 8.455455838733e-04 1.304243540393e-03 1.257828909893e-03 8.376390871193e-04 2.826987472498e-04 -4.924647604619e-05 7.205568628588e-03 7.812256731363e-03 9.104031522422e-03 9.862689289207e-03 9.637046600142e-03 8.556423174044e-03 6.892379245388e-03 4.883013089912e-03 2.735759997913e-03 7.777191569296e-04 -1.922883020391e-04 2.681387168386e-02 2.739504672869e-02 2.753836429489e-02 2.558477355271e-02 2.201074352469e-02 1.763667961516e-02 1.306041792318e-02 8.671030473482e-03 4.695909763180e-03 1.341618789798e-03 -3.335241736605e-04 5.753431543772e-02 5.800028087370e-02 5.351761735023e-02 4.535187752966e-02 3.615952864659e-02 2.703427063761e-02 1.862010656028e-02 1.138811690597e-02 5.695375609608e-03 1.634128078909e-03 -3.485939752111e-04 1.219422671326e-01 1.053494802545e-01 8.510436768191e-02 6.676934463946e-02 4.999352058966e-02 3.488548506106e-02 2.167835235689e-02 1.080007355479e-02 2.990545616605e-03 -5.519731860502e-04 -2.297803085451e-04 
        </DataArray>
        <DataArray type="Float64" Name="STRESS_XY" format="ascii">
          8.545055510550e-08 -1.134142598881e-06 -2.709428284997e-06 -4.297106730342e-06 -5.930935597118e-06 -7.451236196648e-06 -8.678967251909e-06 -9.456964761194e-06 -9.726206184434e-06 -1.092770497994e-05 2.454523641636e-05 -3.555579499681e-06 -1.324252647703e-03 -2.523972734024e-03 -3.495006576386e-03 -4.170053378826e-03 -4.514645815813e-03 -4.511772446303e-03 -4.139604362581e-03 -3.348399152766e-03 -2.042732758146e-03 -7.043931995207e-05 -7.827251923312e-06 -2.649394622782e-03 -5.034967499629e-03 -6.945441724956e-03 -8.250341030246e-03 -8.892132999450e-03 -8.850993547172e-03 -8.096874672497e-03 -6.540571814242e-03 -3.993959530107e-03 -1.404230550386e-04 -1.288065044374e-05 -3.975042334877e-03 -7.518068278703e-03 -1.029908083514e-02 -1.213659511205e-02 -1.297562249292e-02 -1.282240216560e-02 -1.166522853811e-02 -9.396654290146e-03 -5.744840213606e-03 -2.085623123943e-04 -1.969142885467e-05 -5.303900880818e-03 -9.952674262765e-03 -1.348267359769e-02 -1.568914889233e-02 -1.656514039731e-02 -1.618558725594e-02 -1.459279585552e-02 -1.169281981136e-02 -7.152364931200e-03 -2.707142722652e-04 -2.993552444356e-05 -6.639231988308e-03 -1.229885456222e-02 -1.637164899810e-02 -1.869526755281e-02 -1.938510205152e-02 -1.863388918366e-02 -1.657024922320e-02 -1.315087741407e-02 -8.027930697595e-03 -3.182500100475e-04 -4.732603868946e-05 -7.978810860023e-03 -1.445838372639e-02 -1.871976243682e-02 -2.079712988731e-02 -2.103612271974e-02 -1.977770508592e-02 -1.723774600485e-02 -1.345017647891e-02 -8.137472499656e-03 -3.351163307723e-04 -8.160774993976e-05 -9.295280723834e-03 -1.616591628156e-02 -1.999985652600e-02 -2.136275465150e-02 -2.092825471481e-02 -1.913782974378e-02 -1.622517681488e-02 -1.228455527228e-02 -7.228983325437e-03 -2.922791276050e-04 -1.653999928004e-04 -1.046317864277e-02 -1.665890625585e-02 -1.907038952623e-02 -1.930524029242e-02 -1.821532178211e-02 -1.615192449837e-02 -1.322788436495e-02 -9.498889499044e-03 -5.131645162874e-03 -1.342089500569e-04 -5.215106680953e-04 -1.090875835441e-02 -1.354933695351e-02 -1.370449243184e-02 -1.299652795121e-02 -1.180127536871e-02 -1.017619891272e-02 -8.045472646550e-03 -5.301743694908e-03 -2.090600181106e-03 2.464025011285e-04 -2.229258624063e-03 -2.309820131215e-03 -1.185595250836e-03 -8.071460634078e-04 -6.148662722258e-04 -4.937502123970e-04 -3.982712292490e-04 -2.912371809672e-04 -1.136739050757e-04 2.548309945996e-04 3.149266510552e-04 
        </DataArray>
        <DataArray type="Float64" Name="STRESS_YY" format="ascii">
          -6.707796736207e-02 -4.691054482446e-02 -3.013448509323e-02 -1.638923169774e-02 -5.124021227177e-03 4.351675775592e-03 1.282720430779e-02 2.117383127237e-02 3.035872084062e-02 4.148816944770e-02 5.587454410597e-02 -6.639647590262e-02 -4.626669721201e-02 -2.958181858290e-02 -1.596953236176e-02 -4.862388830149e-03 4.442922080923e-03 1.273905179392e-02 2.088905314391e-02 2.984141880411e-02 4.067783841010e-02 5.468906293904e-02 -6.437616710247e-02 -4.434564619581e-02 -2.793907105451e-02 -1.473350711450e-02 -4.104733383102e-03 4.691735457322e-03 1.245911020042e-02 2.003485643672e-02 2.830875290683e-02 3.828309904760e-02 5.117589940528e-02 -6.100993702544e-02 -4.115669798490e-02 -2.524161733170e-02 -1.274267488586e-02 -2.925337373135e-03 5.031586985859e-03 1.194999967793e-02 1.862156467370e-02 2.583029624483e-02 3.442914517868e-02 4.548411954202e-02 -5.628907179587e-02 -3.671355052721e-02 -2.155544991683e-02 -1.011140216164e-02 -1.458148044561e-03 5.345780145383e-03 1.114667627911e-02 1.666554227521e-02 2.252617186134e-02 2.934174457081e-02 3.790047907037e-02 -5.019561657319e-02 -3.104058837902e-02 -1.699640057089e-02 -7.029005738821e-03 9.035946494347e-05 5.465826609826e-03 9.959575459714e-03 1.419118036324e-02 1.857105622421e-02 2.336824291157e-02 2.890609329966e-02 -4.269702555087e-02 -2.418781609385e-02 -1.177401840633e-02 -3.798622948131e-03 1.432318004846e-03 5.187978863803e-03 8.296950726982e-03 1.124229401963e-02 1.419506958833e-02 1.699497277319e-02 1.925006151092e-02 -3.373851726846e-02 -1.627778518885e-02 -6.294544663934e-03 -8.955174377682e-04 2.218005485993e-03 4.335928506185e-03 6.129552430433e-03 7.917002683548e-03 9.676754019825e-03 1.083962224185e-02 1.002921464833e-02 -2.321603745381e-02 -7.656932742121e-03 -1.408179988167e-03 1.001433342680e-03 2.150602932549e-03 2.905214391122e-03 3.621605094963e-03 4.455125612679e-03 5.335289651364e-03 5.569955967856e-03 2.750976265151e-03 -1.046487698930e-02 2.208207016743e-04 1.182376867876e-03 1.311794407935e-03 1.299207760829e-03 1.280107474406e-03 1.308799848185e-03 1.421569169602e-03 1.617327419159e-03 1.640259722425e-03 -6.673618594107e-04 2.592960357855e-03 2.110938055862e-03 1.203662059136e-03 8.718734205643e-04 6.536708326465e-04 4.634586179218e-04 2.732496084136e-04 7.206568651012e-05 -1.284169554996e-04 -2.272355812138e-04 -2.306112713248e-04 
        </DataArray>
        <DataArray type="Float64" Name="STRESS_ZZ" format="ascii">
          -1.826694659297e-01 -1.610729585414e-01 -1.401119798986e-01 -1.197306514370e-01 -9.984304233091e-02 -8.033655778252e-02 -6.107647716903e-02 -4.190899473540e-02 -2.266191848022e-02 -3.142245633313e-03 1.684233789723e-02 -1.823324450035e-01 -1.607488965299e-01 -1.398160346691e-01 -1.194786151020e-01 -9.964817936969e-02 -8.020962212235e-02 -6.102656168794e-02 -4.194483659414e-02 -2.279317799421e-02 -3.380264971415e-03 1.648491615656e-02 -1.813143024523e-01 -1.597606708248e-01 -1.389137022470e-01 -1.187108268709e-01 -9.905468432909e-02 -7.982170655072e-02 -6.087004881649e-02 -4.204449505741e-02 -2.317708467412e-02 -4.082585015901e-03 1.542529398802e-02 -1.795528323428e-01 -1.580514535653e-01 -1.373554777483e-01 -1.173878191923e-01 -9.803242470201e-02 -7.914860712573e-02 -6.058378372559e-02 -4.218100229968e-02 -2.377959587827e-02 -5.208073627756e-03 1.370720170965e-02 -1.769394195677e-01 -1.555190878985e-01 -1.350557535021e-01 -1.154448371192e-01 -9.653540703180e-02 -7.815587181498e-02 -6.013506383276e-02 -4.231358615558e-02 -2.454457305320e-02 -6.683418623463e-03 1.141512634629e-02 -1.733036418422e-01 -1.520054310609e-01 -1.318881988844e-01 -1.127946872300e-01 -9.450992161436e-02 -7.680934126319e-02 -5.949218239976e-02 -4.239592921892e-02 -2.539680554179e-02 -8.397401260847e-03 8.691644214674e-03 -1.683841037049e-01 -1.472739242797e-01 -1.276790068922e-01 -1.093356387208e-01 -9.191019703993e-02 -7.509299067719e-02 -5.864207983077e-02 -4.239179151586e-02 -2.625140623198e-02 -1.019730793149e-02 5.760244510463e-03 -1.617659845920e-01 -1.409651479205e-01 -1.222020327699e-01 -1.049741168322e-01 -8.872714248075e-02 -7.303534250742e-02 -5.761585860823e-02 -4.230182366268e-02 -2.703746462929e-02 -1.189540696799e-02 2.951077903888e-03 -1.527267497310e-01 -1.325040551872e-01 -1.152058235355e-01 -9.968840631900e-02 -8.503525416942e-02 -7.074047980961e-02 -5.651783120554e-02 -4.220398156887e-02 -2.775185901025e-02 -1.330713696033e-02 7.252356274473e-04 -1.396852684655e-01 -1.209591589106e-01 -1.066348805621e-01 -9.366516680634e-02 -8.104603718437e-02 -6.840873457789e-02 -5.554376618844e-02 -4.229892257205e-02 -2.856740792598e-02 -1.439829304722e-02 -3.047867503865e-04 -1.164455317529e-01 -1.061873638901e-01 -9.715246990518e-02 -8.737190296961e-02 -7.708950067990e-02 -6.629836490780e-02 -5.493695752139e-02 -4.288018662233e-02 -2.990258023628e-02 -1.561437201780e-02 -1.381174739610e-04 
        </DataArray>
        <DataArray type="Float64" Name="STRAIN_XX" format="ascii">
          9.504622742085e-03 8.201881969377e-03 7.017284119747e-03 5.936580390221e-03 4.938088142229e-03 3.995324012757e-03 3.078883434987e-03 2.157047223445e-03 1.194815482564e-03 1.515813639671e-04 -1.026118208706e-03 9.511115976009e-03 8.208833693434e-03 7.025819075262e-03 5.947004251131e-03 4.950038723160e-03 4.008010582863e-03 3.091550509305e-03 2.169499188308e-03 1.207879234391e-03 1.673641428546e-04 -1.004358864088e-03 9.533114275928e-03 8.232655200626e-03 7.054462086067e-03 5.981391146987e-03 4.988863304525e-03 4.048640099274e-03 3.131487641763e-03 2.207982920726e-03 1.247305364743e-03 2.141636842661e-04 -9.399338474544e-04 9.579163175862e-03 8.282131058391e-03 7.112553727647e-03 6.049250261013e-03 5.063512799248e-03 4.124827143817e-03 3.204353409459e-03 2.275754698045e-03 1.313704238140e-03 2.901712036456e-04 -8.357544548586e-04 9.664412094256e-03 8.372865224782e-03 7.216544802604e-03 6.167014915627e-03 5.188922678891e-03 4.248772191525e-03 3.318898048827e-03 2.377690797497e-03 1.407748568359e-03 3.920001387209e-04 -6.973685495748e-04 9.812366093193e-03 8.529210063585e-03 7.391853605335e-03 6.358999327417e-03 5.385632806060e-03 4.435839601208e-03 3.485245893841e-03 2.518971584485e-03 1.529488811829e-03 5.142130668300e-04 -5.339651034150e-04 1.005876755450e-02 8.788430695272e-03 7.676557679729e-03 6.658663590119e-03 5.678074954023e-03 4.700957006637e-03 3.710962875358e-03 2.702119359690e-03 1.676940900706e-03 6.487623182078e-04 -3.596351563077e-04 1.046014377080e-02 9.210029811780e-03 8.128470646670e-03 7.108945140848e-03 6.089211705008e-03 5.050918827900e-03 3.993367105224e-03 2.920966084684e-03 1.843104381684e-03 7.845268553521e-04 -1.945893365574e-04 1.111441942092e-02 9.898515832891e-03 8.836544960927e-03 7.755006373011e-03 6.626657000112e-03 5.470967012009e-03 4.307224946064e-03 3.149405507384e-03 2.008671400260e-03 9.068277369125e-04 -6.554227340191e-05 1.220883138448e-02 1.107844151046e-02 9.914202251713e-03 8.605817030324e-03 7.255582646678e-03 5.908376513341e-03 4.591096884445e-03 3.323483396258e-03 2.121029456965e-03 9.924832125701e-04 -2.711875822475e-06 1.475733993101e-02 1.309513797086e-02 1.128256613634e-02 9.542077232942e-03 7.867044173830e-03 6.263762140929e-03 4.742852516274e-03 3.323063725250e-03 2.036241124226e-03 9.324342133942e-04 -5.674365950445e-06 
        </DataArray>
        <DataArray type="Float64" Name="STRAIN_XY" format="ascii">