<?xml version="1.0"?>
<!-- Time step: 12 | Time: 1.200000000000e+01 -->
<VTKFile type="UnstructuredGrid" version="0.1" byte_order="LittleEndian">
  <UnstructuredGrid>
    <Piece NumberOfPoints="121" NumberOfCells="100">
      <Points>
        <DataArray type="Float64" NumberOfComponents="3" format="ascii">
          0.000000000000e+00 0.000000000000e+00 0.000000000000e+00
          1.000000000000e-01 0.000000000000e+00 0.000000000000e+00
          2.000000000000e-01 0.000000000000e+00 0.000000000000e+00
          3.000000000000e-01 0.000000000000e+00 0.000000000000e+00
          4.000000000000e-01 0.000000000000e+00 0.000000000000e+00
          5.000000000000e-01 0.000000000000e+00 0.000000000000e+00
          6.000000000000e-01 0.000000000000e+00 0.000000000000e+00
          7.000000000000e-01 0.000000000000e+00 0.000000000000e+00
          8.000000000000e-01 0.000000000000e+00 0.000000000000e+00
          9.000000000000e-01 0.000000000000e+00 0.000000000000e+00
          1.000000000000e+00 0.000000000000e+00 0.000000000000e+00
          0.000000000000e+00 1.000000000000e-01 0.000000000000e+00
          1.000000000000e-01 1.000000000000e-01 0.000000000000e+00
          2.000000000000e-01 1.000000000000e-01 0.000000000000e+00
          3.000000000000e-01 1.000000000000e-01 0.000000000000e+00
          4.000000000000e-01 1.000000000000e-01 0.000000000000e+00
          5.000000000000e-01 1.000000000000e-01 0.000000000000e+00
          6.000000000000e-01 1.000000000000e-01 0.000000000000e+00
          7.000000000000e-01 1.000000000000e-01 0.000000000000e+00
          8.000000000000e-01 1.000000000000e-01 0.000000000000e+00
          9.000000000000e-01 1.000000000000e-01 0.000000000000e+00
          1.000000000000e+00 1.000000000000e-01 0.000000000000e+00
          0.000000000000e+00 2.000000000000e-01 0.000000000000e+00
          1.000000000000e-01 2.000000000000e-01 0.000000000000e+00
          2.000000000000e-01 2.000000000000e-01 0.000000000000e+00
          3.000000000000e-01 2.000000000000e-01 0.000000000000e+00
          4.000000000000e-01 2.000000000000e-01 0.000000000000e+00
          5.000000000000e-01 2.000000000000e-01 0.000000000000e+00
          6.000000000000e-01 2.000000000000e-01 0.000000000000e+00
          7.000000000000e-01 2.000000000000e-01 0.000000000000e+00
          8.000000000000e-01 2.000000000000e-01 0.000000000000e+00
          9.000000000000e-01 2.000000000000e-01 0.000000000000e+00
          1.000000000000e+00 2.000000000000e-01 0.000000000000e+00
          0.000000000000e+00 3.000000000000e-01 0.000000000000e+00
          1.000000000000e-01 3.000000000000e-01 0.000000000000e+00
          2.000000000000e-01 3.000000000000e-01 0.000000000000e+00
          3.000000000000e-01 3.000000000000e-01 0.000000000000e+00
          4.000000000000e-01 3.000000000000e-01 0.000000000000e+00
          5.000000000000e-01 3.000000000000e-01 0.000000000000e+00
          6.000000000000e-01 3.000000000000e-01 0.000000000000e+00
          7.000000000000e-01 3.000000000000e-01 0.000000000000e+00
          8.000000000000e-01 3.000000000000e-01 0.000000000000e+00
          9.000000000000e-01 3.000000000000e-01 0.000000000000e+00
          1.000000000000e+00 3.000000000000e-01 0.000000000000e+00
          0.000000000000e+00 4.000000000000e-01 0.000000000000e+00
          1.000000000000e-01 4.000000000000e-01 0.000000000000e+00
          2.000000000000e-01 4.000000000000e-01 0.000000000000e+00
          3.000000000000e-01 4.000000000000e-01 0.000000000000e+00
          4.000000000000e-01 4.000000000000e-01 0.000000000000e+00
          5.000000000000e-01 4.000000000000e-01 0.000000000000e+00
          6.000000000000e-01 4.000000000000e-01 0.000000000000e+00
          7.000000000000e-01 4.000000000000e-01 0.000000000000e+00
          8.000000000000e-01 4.000000000000e-01 0.000000000000e+00
          9.000000000000e-01 4.000000000000e-01 0.000000000000e+00
          1.000000000000e+00 4.000000000000e-01 0.000000000000e+00
          0.000000000000e+00 5.000000000000e-01 0.000000000000e+00
          1.000000000000e-01 5.000000000000e-01 0.000000000000e+00
          2.000000000000e-01 5.000000000000e-01 0.000000000000e+00
          3.000000000000e-01 5.000000000000e-01 0.000000000000e+00
          4.000000000000e-01 5.000000000000e-01 0.000000000000e+00
          5.000000000000e-01 5.000000000000e-01 0.000000000000e+00
          6.000000000000e-01 5.000000000000e-01 0.000000000000e+00
          7.000000000000e-01 5.000000000000e-01 0.000000000000e+00
          8.000000000000e-01 5.000000000000e-01 0.000000000000e+00
          9.000000000000e-01 5.000000000000e-01 0.000000000000e+00
          1.000000000000e+00 5.000000000000e-01 0.000000000000e+00
          0.000000000000e+00 6.000000000000e-01 0.000000000000e+00
          1.000000000000e-01 6.000000000000e-01 0.000000000000e+00
          2.000000000000e-01 6.000000000000e-01 0.000000000000e+00
          3.000000000000e-01 6.000000000000e-01 0.000000000000e+00
          4.000000000000e-01 6.000000000000e-01 0.000000000000e+00
          5.000000000000e-01 6.000000000000e-01 0.000000000000e+00
          6.000000000000e-01 6.000000000000e-01 0.000000000000e+00
          7.000000000000e-01 6.000000000000e-01 0.000000000000e+00
          8.000000000000e-01 6.000000000000e-01 0.000000000000e+00
          9.000000000000e-01 6.000000000000e-01 0.000000000000e+00
          1.000000000000e+00 6.000000000000e-01 0.000000000000e+00
          0.000000000000e+00 7.000000000000e-01 0.000000000000e+00
          1.000000000000e-01 7.000000000000e-01 0.000000000000e+00
          2.000000000000e-01 7.000000000000e-01 0.000000000000e+00
          3.000000000000e-01 7.000000000000e-01 0.000000000000e+00
          4.000000000000e-01 7.000000000000e-01 0.000000000000e+00
          5.000000000000e-01 7.000000000000e-01 0.000000000000e+00
          6.000000000000e-01 7.000000000000e-01 0.000000000000e+00
          7.000000000000e-01 7.000000000000e-01 0.000000000000e+00
          8.000000000000e-01 7.000000000000e-01 0.000000000000e+00
          9.000000000000e-01 7.000000000000e-01 0.000000000000e+00
          1.000000000000e+00 7.000000000000e-01 0.000000000000e+00
          0.000000000000e+00 8.000000000000e-01 0.000000000000e+00
          1.000000000000e-01 8.000000000000e-01 0.000000000000e+00
          2.000000000000e-01 8.000000000000e-01 0.000000000000e+00
          3.000000000000e-01 8.000000000000e-01 0.000000000000e+00
          4.000000000000e-01 8.000000000000e-01 0.000000000000e+00
          5.000000000000e-01 8.000000000000e-01 0.000000000000e+00
          6.000000000000e-01 8.000000000000e-01 0.000000000000e+00
          7.000000000000e-01 8.000000000000e-01 0.000000000000e+00
          8.000000000000e-01 8.000000000000e-01 0.000000000000e+00
          9.000000000000e-01 8.000000000000e-01 0.000000000000e+00
          1.000000000000e+00 8.000000000000e-01 0.000000000000e+00
          0.000000000000e+00 9.000000000000e-01 0.000000000000e+00
          1.000000000000e-01 9.000000000000e-01 0.000000000000e+00
          2.000000000000e-01 9.000000000000e-01 0.000000000000e+00
          3.000000000000e-01 9.000000000000e-01 0.000000000000e+00
          4.000000000000e-01 9.000000000000e-01 0.000000000000e+00
          5.000000000000e-01 9.000000000000e-01 0.000000000000e+00
          6.000000000000e-01 9.000000000000e-01 0.000000000000e+00
          7.000000000000e-01 9.000000000000e-01 0.000000000000e+00
          8.000000000000e-01 9.000000000000e-01 0.000000000000e+00
          9.000000000000e-01 9.000000000000e-01 0.000000000000e+00
          1.000000000000e+00 9.000000000000e-01 0.000000000000e+00
          0.000000000000e+00 1.000000000000e+00 0.000000000000e+00
          1.000000000000e-01 1.000000000000e+00 0.000000000000e+00
          2.000000000000e-01 1.000000000000e+00 0.000000000000e+00
          3.000000000000e-01 1.000000000000e+00 0.000000000000e+00
          4.000000000000e-01 1.000000000000e+00 0.000000000000e+00
          5.000000000000e-01 1.000000000000e+00 0.000000000000e+00
          6.000000000000e-01 1.000000000000e+00 0.000000000000e+00
          7.000000000000e-01 1.000000000000e+00 0.000000000000e+00
          8.000000000000e-01 1.000000000000e+00 0.000000000000e+00
          9.000000000000e-01 1.000000000000e+00 0.000000000000e+00
          1.000000000000e+00 1.000000000000e+00 0.000000000000e+00
        </DataArray>
      </Points>
      <Cells>
        <DataArray type="Int64" Name="connectivity" format="ascii">
          0 1 12 11 
          1 2 13 12 
          2 3 14 13 
          3 4 15 14 
          4 5 16 15 
          5 6 17 16 
          6 7 18 17 
          7 8 19 18 
          8 9 20 19 
          9 10 21 20 
          11 12 23 22 
          12 13 24 23 
          13 14 25 24 
          14 15 26 25 
          15 16 27 26 
          16 17 28 27 
          17 18 29 28 
          18 19 30 29 
          19 20 31 30 
          20 21 32 31 
          22 23 34 33 
          23 24 35 34 
          24 25 36 35 
          25 26 37 36 
          26 27 38 37 
          27 28 39 38 
          28 29 40 39 
          29 30 41 40 
          30 31 42 41 
          31 32 43 42 
          33 34 45 44 
          34 35 46 45 
          35 36 47 46 
          36 37 48 47 
          37 38 49 48 
          38 39 50 49 
          39 40 51 50 
          40 41 52 51 
          41 42 53 52 
          42 43 54 53 
          44 45 56 55 
          45 46 57 56 
          46 47 58 57 
          47 48 59 58 
          48 49 60 59 
          49 50 61 60 
          50 51 62 61 
          51 52 63 62 
          52 53 64 63 
          53 54 65 64 
          55 56 67 66 
          56 57 68 67 
          57 58 69 68 
          58 59 70 69 
          59 60 71 70 
          60 61 72 71 
          61 62 73 72 
          62 63 74 73 
          63 64 75 74 
          64 65 76 75 
          66 67 78 77 
          67 68 79 78 
          68 69 80 79 
          69 70 81 80 
          70 71 82 81 
          71 72 83 82 
          72 73 84 83 
          73 74 85 84 
          74 75 86 85 
          75 76 87 86 
          77 78 89 88 
          78 79 90 89 
          79 80 91 90 
          80 81 92 91 
          81 82 93 92 
          82 83 94 93 
          83 84 95 94 
          84 85 96 95 
          85 86 97 96 
          86 87 98 97 
          88 89 100 99 
          89 90 101 100 
          90 91 102 101 
          91 92 103 102 
          92 93 104 103 
          93 94 105 104 
          94 95 106 105 
          95 96 107 106 
          96 97 108 107 
          97 98 109 108 
          99 100 111 110 
          100 101 112 111 
          101 102 113 112 
          102 103 114 113 
          103 104 115 114 
          104 105 116 115 
          105 106 117 116 
          106 107 118 117 
          107 108 119 118 
          108 109 120 119 
        </DataArray>
        <DataArray type="Int64" Name="offsets" format="ascii">
          4 8 12 16 20 24 28 32 36 40 44 48 52 56 60 64 68 72 76 80 84 88 92 96 100 104 108 112 116 120 124 128 132 136 140 144 148 152 156 160 164 168 172 176 180 184 188 192 196 200 204 208 212 216 220 224 228 232 236 240 244 248 252 256 260 264 268 272 276 280 284 288 292 296 300 304 308 312 316 320 324 328 332 336 340 344 348 352 356 360 364 368 372 376 380 384 388 392 396 400 
        </DataArray>
        <DataArray type="UInt8" Name="types" format="ascii">
          9 9 9 9 9 9 9 9 9 9 9 9 9 9 9 9 9 9 9 9 9 9 9 9 9 9 9 9 9 9 9 9 9 9 9 9 9 9 9 9 9 9 9 9 9 9 9 9 9 9 9 9 9 9 9 9 9 9 9 9 9 9 9 9 9 9 9 9 9 9 9 9 9 9 9 9 9 9 9 9 9 9 9 9 9 9 9 9 9 9 9 9 9 9 9 9 9 9 9 9 
        </DataArray>
      </Cells>
      <PointData Scalars="PRESSURE1">
        <DataArray type="Float64" Name="PRESSURE1" format="ascii">
          1.254560208716e-03 1.137639363700e-03 1.014091644474e-03 8.888225881040e-04 7.627150609308e-04 6.361109299249e-04 5.091858449472e-04 3.820471259797e-04 2.547682712576e-04 1.274042787579e-04 0.000000000000e+00 1.264926791961e-03 1.139594029508e-03 1.014908631510e-03 8.892668028731e-04 7.629908860467e-04 6.362931299688e-04 5.093084314707e-04 3.821279735045e-04 2.548175213789e-04 1.274276121932e-04 0.000000000000e+00 1.269776695957e-03 1.142917661857e-03 1.016648118168e-03 8.903104358590e-04 7.636691206024e-04 6.367513845368e-04 5.096203099516e-04 3.823348686403e-04 2.549439258503e-04 1.274875802087e-04 0.000000000000e+00 1.273087266384e-03 1.145705003836e-03 1.018660902956e-03 8.916909208940e-04 7.646269643934e-04 6.374204112487e-04 5.100834557602e-04 3.826447968275e-04 2.551341051961e-04 1.275779848390e-04 0.000000000000e+00 1.275776329794e-03 1.148138284368e-03 1.020644889245e-03 8.932030692150e-04 7.657398829021e-04 6.382225492972e-04 5.106478986413e-04 3.830256855386e-04 2.553688073343e-04 1.276897688336e-04 0.000000000000e+00 1.278233387134e-03 1.150417522957e-03 1.022586949141e-03 8.947503205120e-04 7.669149821450e-04 6.390847333206e-04 5.112603293787e-04 3.834409570435e-04 2.556253137773e-04 1.278120731592e-04 0.000000000000e+00 1.280712848717e-03 1.152712453825e-03 1.024534416112e-03 8.962950490891e-04 7.680841105376e-04 6.399407031185e-04 5.118676455806e-04 3.838525152620e-04 2.558794507914e-04 1.279332311163e-04 0.000000000000e+00 1.283480181727e-03 1.155196492799e-03 1.026530535918e-03 8.977940715084e-04 7.691760017295e-04 6.407231994671e-04 5.124166105142e-04 3.842223863896e-04 2.561071875940e-04 1.280416590720e-04 0.000000000000e+00 1.286973404896e-03 1.158078755790e-03 1.028539191546e-03 8.991307477591e-04 7.700904885358e-04 6.413573672825e-04 5.128540144899e-04 3.845145409691e-04 2.562862930548e-04 1.281267629585e-04 0.000000000000e+00 1.292292283461e-03 1.161519461224e-03 1.030153522827e-03 9.000774379311e-04 7.706986057676e-04 6.417659878626e-04 5.131313436586e-04 3.846982587527e-04 2.563984586012e-04 1.281799587087e-04 0.000000000000e+00 1.304614354960e-03 1.162643294317e-03 1.030712692859e-03 9.003772515744e-04 7.708849449952e-04 6.418890698561e-04 5.132141550610e-04 3.847528740200e-04 2.564317287425e-04 1.281957212421e-04 0.000000000000e+00 
        </DataArray>
        <DataArray type="Float64" Name="TEMPERATURE1" format="ascii">
          5.231500000000e+02 4.708349999997e+02 4.185199999995e+02 3.662049999993e+02 3.138899999992e+02 2.615749999992e+02 2.092599999992e+02 1.569449999993e+02 1.046299999995e+02 5.231499999975e+01 0.000000000000e+00 5.231500000000e+02 4.708349999997e+02 4.185199999995e+02 3.662049999993e+02 3.138899999992e+02 2.615749999992e+02 2.092599999992e+02 1.569449999993e+02 1.046299999995e+02 5.231499999975e+01 0.000000000000e+00 5.231500000000e+02 4.708349999997e+02 4.185199999995e+02 3.662049999993e+02 3.138899999992e+02 2.615749999992e+02 2.092599999992e+02 1.569449999993e+02 1.046299999995e+02 5.231499999975e+01 0.000000000000e+00 5.231500000000e+02 4.708349999997e+02 4.185199999995e+02 3.662049999993e+02 3.138899999992e+02 2.615749999992e+02 2.092599999992e+02 1.569449999993e+02 1.046299999995e+02 5.231499999975e+01 0.000000000000e+00 5.231500000000e+02 4.708349999997e+02 4.185199999995e+02 3.662049999993e+02 3.138899999992e+02 2.615749999992e+02 2.092599999992e+02 1.569449999993e+02 1.046299999995e+02 5.231499999975e+01 0.000000000000e+00 5.231500000000e+02 4.708349999997e+02 4.185199999995e+02 3.662049999993e+02 3.138899999992e+02 2.615749999992e+02 2.092599999992e+02 1.569449999993e+02 1.046299999995e+02 5.231499999975e+01 0.000000000000e+00 5.231500000000e+02 4.708349999998e+02 4.185199999995e+02 3.662049999993e+02 3.138899999992e+02 2.615749999992e+02 2.092599999992e+02 1.569449999993e+02 1.046299999995e+02 5.231499999975e+01 0.000000000000e+00 5.231500000000e+02 4.708349999998e+02 4.185199999995e+02 3.662049999993e+02 3.138899999992e+02 2.615749999992e+02 2.092599999992e+02 1.569449999993e+02 1.046299999995e+02 5.231499999975e+01 0.000000000000e+00 5.231500000000e+02 4.708349999998e+02 4.185199999995e+02 3.662049999993e+02 3.138899999992e+02 2.615749999992e+02 2.092599999992e+02 1.569449999993e+02 1.046299999995e+02 5.231499999975e+01 0.000000000000e+00 5.231500000000e+02 4.708349999998e+02 4.185199999995e+02 3.662049999993e+02 3.138899999992e+02 2.615749999992e+02 2.092599999992e+02 1.569449999993e+02 1.046299999995e+02 5.231499999975e+01 0.000000000000e+00 5.231500000000e+02 4.708349999998e+02 4.185199999995e+02 3.662049999993e+02 3.138899999992e+02 2.615749999992e+02 2.092599999992e+02 1.569449999993e+02 1.046299999995e+02 5.231499999975e+01 0.000000000000e+00 
        </DataArray>
        <DataArray type="Float64" Name="STRESS_XX" format="ascii">
          -2.913325245285e-02 -2.858101909001e-02 -2.675585187694e-02 -2.383204521502e-02 -2.007392627957e-02 -1.579670843877e-02 -1.134066791585e-02 -7.064385799684e-03 -3.361053023326e-03 -6.936236071195e-04 2.665822204538e-04 -2.869134081958e-02 -2.814465999321e-02 -2.632203428664e-02 -2.341162343452e-02 -1.968601547477e-02 -1.546483588071e-02 -1.108613046931e-02 -6.899080537399e-03 -3.281282702362e-03 -6.766903638060e-04 2.606575853239e-04 -2.731784109977e-02 -2.677162531185e-02 -2.495700706643e-02 -2.208835457745e-02 -1.846535412633e-02 -1.442059736301e-02 -1.028447931720e-02 -6.377078718843e-03 -3.028305744908e-03 -6.230178181429e-04 2.417472244759e-04 -2.481250411625e-02 -2.426318263256e-02 -2.246037911191e-02 -1.966916120894e-02 -1.623721805629e-02 -1.251678415989e-02 -8.821151846007e-03 -5.418811114896e-03 -2.558219774734e-03 -5.206926586394e-04 2.065528273783e-04 -2.082199338444e-02 -2.026511116282e-02 -1.848079901650e-02 -1.582382701866e-02 -1.271434849662e-02 -9.521859640163e-03 -6.522095497867e-03 -3.904734926225e-03 -1.804019322693e-03 -3.511087076375e-04 1.499420890006e-04 -1.479618946227e-02 -1.422588380033e-02 -1.248133293852e-02 -1.007239046931e-02 -7.511237958770e-03 -5.153470954126e-03 -3.192056594368e-03 -1.704849915253e-03 -6.896786630772e-04 -9.088251146745e-05 6.605408884460e-05 -5.896319955769e-03 -5.306966754544e-03 -3.673075092495e-03 -1.772611548315e-03 -1.874479172279e-04 8.455454052389e-04 1.304243359488e-03 1.257828762921e-03 8.376389979218e-04 2.826987211756e-04 -4.924646929791e-05 7.205568866078e-03 7.812256920322e-03 9.104031602619e-03 9.862689261835e-03 9.637046498102e-03 8.556423036070e-03 6.892379106225e-03 4.883012976744e-03 2.735759927594e-03 7.777191343680e-04 -1.922882970736e-04 2.681387190969e-02 2.739504689653e-02 2.753836436990e-02 2.558477357916e-02 2.201074353870e-02 1.763667963005e-02 1.306041793941e-02 8.671030487704e-03 4.695909772162e-03 1.341618790350e-03 -3.335241755688e-04 5.753431540592e-02 5.800028078716e-02 5.351761735174e-02 4.535187770729e-02 3.615952897312e-02 2.703427104091e-02 1.862010695558e-02 1.138811722035e-02 5.695375802251e-03 1.634128144990e-03 -3.485939902320e-04 1.219422656270e-01 1.053494794314e-01 8.510436767137e-02 6.676934527205e-02 4.999352165399e-02 3.488548631286e-02 2.167835354917e-02 1.080007447343e-02 2.990546124140e-03 -5.519730800560e-04 -2.297803439414e-04 
        </DataArray>
        <DataArray type="Float64" Name="STRESS_XY" format="ascii">
          8.545055473340e-08 -1.134142635944e-06 -2.709428348724e-06 -4.297106804984e-06 -5.930935667513e-06 -7.451236252196e-06 -8.678967288191e-06 -9.456964779483e-06 -9.726206192380e-06 -1.092770500383e-05 2.454523666024e-05 -3.555579407438e-06 -1.324252638122e-03 -2.523972718814e-03 -3.495006562022e-03 -4.170053371988e-03 -4.514645821008e-03 -4.511772464124e-03 -4.139604389059e-03 -3.348399179999e-03 -2.042732776255e-03 -7.043932040621e-05 -7.827251714397e-06 -2.649394600897e-03 -5.034967464652e-03 -6.945441691228e-03 -8.250341012510e-03 -8.892133007691e-03 -8.850993582952e-03 -8.096874727610e-03 -6.540571871961e-03 -3.993959569089e-03 -1.404230561338e-04 -1.288065006254e-05 -3.975042294972e-03 -7.518068214480e-03 -1.029908077178e-02 -1.213659507518e-02 -1.297562249986e-02 -1.282240221953e-02 -1.166522862604e-02 -9.396654384776e-03 -5.744840279063e-03 -2.085623145520e-04 -1.969142819799e-05 -5.303900813697e-03 -9.952674154361e-03 -1.348267348898e-02 -1.568914882404e-02 -1.656514039655e-02 -1.618558732810e-02 -1.459279598197e-02 -1.169281995199e-02 -7.152365031451e-03 -2.707142762360e-04 -2.993552332300e-05 -6.639231880760e-03 -1.229885438907e-02 -1.637164882359e-02 -1.869526743802e-02 -1.938510203546e-02 -1.863388927391e-02 -1.657024939422e-02 -1.315087761079e-02 -8.027930842682e-03 -3.182500170284e-04 -4.732603674087e-05 -7.978810694642e-03 -1.445838346394e-02 -1.871976217511e-02 -2.079712971226e-02 -2.103612268211e-02 -1.977770519369e-02 -1.723774622402e-02 -1.345017673854e-02 -8.137472698063e-03 -3.351163424629e-04 -8.160774636511e-05 -9.295280480361e-03 -1.616591590844e-02 -1.999985616613e-02 -2.136275441360e-02 -2.092825465540e-02 -1.913782986726e-02 -1.622517707777e-02 -1.228455558952e-02 -7.228983575914e-03 -2.922791458842e-04 -1.653999854148e-04 -1.046317830464e-02 -1.665890577828e-02 -1.907038909603e-02 -1.930524001888e-02 -1.821532171299e-02 -1.615192463046e-02 -1.322788464848e-02 -9.498889841587e-03 -5.131645437344e-03 -1.342089749505e-04 -5.215106454189e-04 -1.090875793586e-02 -1.354933648566e-02 -1.370449205434e-02 -1.299652772495e-02 -1.180127531691e-02 -1.017619902697e-02 -8.045472885990e-03 -5.301743982089e-03 -2.090600399151e-03 2.464024827344e-04 -2.229258532624e-03 -2.309820028937e-03 -1.185595193732e-03 -8.071460274809e-04 -6.148662537305e-04 -4.937502103372e-04 -3.982712424091e-04 -2.912372068345e-04 -1.136739380096e-04 2.548309731385e-04 3.149266688851e-04 
        </DataArray>
        <DataArray type="Float64" Name="STRESS_YY" format="ascii">
          -6.707796553882e-02 -4.691054387782e-02 -3.013448492972e-02 -1.638923215224e-02 -5.124022081330e-03 4.351674772326e-03 1.282720341643e-02 2.117383074357e-02 3.035872089547e-02 4.148817026062e-02 5.587454578982e-02 -6.639647408426e-02 -4.626669626925e-02 -2.958181842061e-02 -1.596953281411e-02 -4.862389679292e-03 4.442921083981e-03 1.273905090805e-02 2.088905261758e-02 2.984141885688e-02 4.067783921619e-02 5.468906461288e-02 -6.437616530018e-02 -4.434564526587e-02 -2.793907089644e-02 -1.473350756028e-02 -4.104734216475e-03 4.691734480443e-03 1.245910933210e-02 2.003485591860e-02 2.830875295356e-02 3.828309983241e-02 5.117590104730e-02 -6.100993525480e-02 -4.115669708035e-02 -2.524161718265e-02 -1.274267532018e-02 -2.925338177686e-03 5.031586046074e-03 1.194999884261e-02 1.862156417202e-02 2.583029628218e-02 3.442914592557e-02 4.548412112483e-02 -5.628907008023e-02 -3.671354966701e-02 -2.155544978446e-02 -1.011140257857e-02 -1.458148803234e-03 5.345779265179e-03 1.114667549766e-02 1.666554180227e-02 2.252617188722e-02 2.934174525971e-02 3.790048055692e-02 -5.019561494779e-02 -3.104058759149e-02 -1.699640046645e-02 -7.029006130219e-03 9.035877511839e-05 5.465825818938e-03 9.959574759831e-03 1.419117993654e-02 1.857105623855e-02 2.336824351851e-02 2.890609463914e-02 -4.269702406763e-02 -2.418781541961e-02 -1.177401834403e-02 -3.798623301318e-03 1.432317414512e-03 5.187978199660e-03 8.296950142809e-03 1.124229366151e-02 1.419506959380e-02 1.699497327158e-02 1.925006263621e-02 -3.373851600133e-02 -1.627778468191e-02 -6.294544656426e-03 -8.955177314617e-04 2.218005033465e-03 4.335928010683e-03 6.129551998215e-03 7.917002417736e-03 9.676754021454e-03 1.083962260713e-02 1.002921547949e-02 -2.321603650407e-02 -7.656932464008e-03 -1.408180031801e-03 1.001433142408e-03 2.150602656665e-03 2.905214099057e-03 3.621604842010e-03 4.455125455967e-03 5.335289652816e-03 5.569956186908e-03 2.750976729662e-03 -1.046487650721e-02 2.208207280380e-04 1.182376825454e-03 1.311794335724e-03 1.299207674034e-03 1.280107385741e-03 1.308799771012e-03 1.421569119390e-03 1.617327416451e-03 1.640259797508e-03 -6.673617583245e-04 2.592960308949e-03 2.110938022804e-03 1.203662062171e-03 8.718734359067e-04 6.536708534470e-04 4.634586397517e-04 2.732496271445e-04 7.206569771932e-05 -1.284169567843e-04 -2.272355973862e-04 -2.306113049347e-04 
        </DataArray>
        <DataArray type="Float64" Name="STRESS_ZZ" format="ascii">
          -1.826694653975e-01 -1.610729588903e-01 -1.401119810419e-01 -1.197306532100e-01 -9.984304450804e-02 -8.033656009970e-02 -6.107647934960e-02 -4.190899651664e-02 -2.266191963822e-02 -3.142246003875e-03 1.684233840308e-02 -1.823324444712e-01 -1.607488968787e-01 -1.398160358120e-01 -1.194786168744e-01 -9.964818154599e-02 -8.020962443878e-02 -6.102656386815e-02 -4.194483837575e-02 -2.279317915351e-02 -3.380265344212e-03 1.648491665946e-02 -1.813143019200e-01 -1.597606711732e-01 -1.389137033887e-01 -1.187108286411e-01 -9.905468650261e-02 -7.982170886453e-02 -6.087005099530e-02 -4.204449683988e-02 -2.317708583726e-02 -4.082585395646e-03 1.542529448153e-02 -1.795528318113e-01 -1.580514539138e-01 -1.373554788882e-01 -1.173878209585e-01 -9.803242686997e-02 -7.914860943391e-02 -6.058378590079e-02 -4.218100408267e-02 -2.377959704763e-02 -5.208074019848e-03 1.370720218566e-02 -1.769394190394e-01 -1.555190882489e-01 -1.350557546401e-01 -1.154448388790e-01 -9.653540918973e-02 -7.815587411226e-02 -6.013506599984e-02 -4.231358793699e-02 -2.454457423050e-02 -6.683419034304e-03 1.141512679378e-02 -1.733036413230e-01 -1.520054314175e-01 -1.318882000214e-01 -1.127946889797e-01 -9.450992375487e-02 -7.680934354032e-02 -5.949218455013e-02 -4.239593099342e-02 -2.539680672722e-02 -8.397401697814e-03 8.691644618394e-03 -1.683841032070e-01 -1.472739246522e-01 -1.276790080308e-01 -1.093356404547e-01 -9.191019915059e-02 -7.509299291829e-02 -5.864208194908e-02 -4.239179327248e-02 -2.625140742234e-02 -1.019730840210e-02 5.760244850073e-03 -1.617659841406e-01 -1.409651483284e-01 -1.222020339160e-01 -1.049741185407e-01 -8.872714454030e-02 -7.303534468574e-02 -5.761586066844e-02 -4.230182538146e-02 -2.703746581515e-02 -1.189540747748e-02 2.951078154725e-03 -1.527267493783e-01 -1.325040556702e-01 -1.152058246984e-01 -9.968840798334e-02 -8.503525614116e-02 -7.074048188103e-02 -5.651783316535e-02 -4.220398321671e-02 -2.775186017237e-02 -1.330713750675e-02 7.252357662281e-04 -1.396852683304e-01 -1.209591595454e-01 -1.066348817467e-01 -9.366516838690e-02 -8.104603900563e-02 -6.840873647177e-02 -5.554376798180e-02 -4.229892409789e-02 -2.856740903425e-02 -1.439829361718e-02 -3.047867245669e-04 -1.164455322192e-01 -1.061873647637e-01 -9.715247107980e-02 -8.737190438742e-02 -7.708950224754e-02 -6.629836651398e-02 -5.493695904688e-02 -4.288018794846e-02 -2.990258124965e-02 -1.561437260316e-02 -1.381174946628e-04 
        </DataArray>
        <DataArray type="Float64" Name="STRAIN_XX" format="ascii">
          9.504622706097e-03 8.201881987635e-03 7.017284186399e-03 5.936580494927e-03 4.938088271286e-03 3.995324150438e-03 3.078883564947e-03 2.157047330097e-03 1.194815552350e-03 1.515813864658e-04 -1.026118239877e-03 9.511115940335e-03 8.208833711957e-03 7.025819142048e-03 5.947004355802e-03 4.950038852028e-03 4.008010720262e-03 3.091550638976e-03 2.169499294755e-03 1.207879304118e-03 1.673641654537e-04 -1.004358895066e-03 9.533114241251e-03 8.232655219991e-03 7.054462153285e-03 5.981391251561e-03 4.988863432818e-03 4.048640235808e-03 3.131487770549e-03 2.207983026540e-03 1.247305434289e-03 2.141637071788e-04 -9.399338778178e-04 9.579163143028e-03 8.282131079315e-03 7.112553795677e-03 6.049250365452e-03 5.063512926561e-03 4.124827278868e-03 3.204353536725e-03 2.275754802767e-03 1.313704307369e-03 2.901712271224e-04 -8.357544840844e-04 9.664412064355e-03 8.372865248185e-03 7.216544871940e-03 6.167015019925e-03 5.188922804812e-03 4.248772324463e-03 3.318898173931e-03 2.377690900667e-03 1.407748637150e-03 3.920001630794e-04 -6.973685769624e-04 9.812366067570e-03 8.529210090585e-03 7.391853676556e-03 6.358999431593e-03 5.385632930235e-03 4.435839731526e-03 3.485246016309e-03 2.518971685791e-03 1.529488880161e-03 5.142130924881e-04 -5.339651280197e-04 1.005876753460e-02 8.788430726996e-03 7.676557753325e-03 6.658663694205e-03 5.678075076351e-03 4.700957134314e-03 3.710962995293e-03 2.702119459334e-03 1.676940968874e-03 6.487623457265e-04 -3.596351769135e-04 1.046014375755e-02 9.210029848731e-03 8.128470722581e-03 7.108945244919e-03 6.089211826187e-03 5.050918954207e-03 3.993367224146e-03 2.920966184080e-03 1.843104450741e-03 7.845268854951e-04 -1.945893517780e-04 1.111441941307e-02 9.898515873177e-03 8.836545037564e-03 7.755006477678e-03 6.626657123039e-03 5.470967141162e-03 4.307225068390e-03 3.149405610273e-03 2.008671472757e-03 9.068277707728e-04 -6.554228211124e-05 1.220883137415e-02 1.107844154439e-02 9.914202325142e-03 8.605817139164e-03 7.255582779637e-03 5.908376655547e-03 4.591097019933e-03 3.323483510176e-03 2.121029537498e-03 9.924832519437e-04 -2.711878350696e-06 1.475733986667e-02 1.309513797398e-02 1.128256620841e-02 9.542077359872e-03 7.867044336761e-03 6.263762317852e-03 4.742852684517e-03 3.323063864212e-03 2.036241218378e-03 9.324342561921e-04 -5.674366860104e-06 
        </DataArray>
        <DataArray type="Float64" Name="STRAIN_XY" format="ascii">